Program Version,EnergyPlus, Version 24.2.0-ae93d71df1, YMD=2024.06.03 13:42
1,5,Environment Title[],Latitude[deg],Longitude[deg],Time Zone[],Elevation[m]
2,8,Day of Simulation[],Month[],Day of Month[],DST Indicator[1=yes 0=no],Hour[],StartMinute[],EndMinute[],DayType
3,5,Cumulative Day of Simulation[],Month[],Day of Month[],DST Indicator[1=yes 0=no],DayType  ! When Daily Meters Requested
4,2,Cumulative Days of Simulation[],Month[]  ! When Monthly Meters Requested
5,1,Cumulative Days of Simulation[] ! When Run Period Meters Requested
6,1,Calendar Year of Simulation[] ! When Annual Meters Requested
61,1,Electricity:Facility [J] !Hourly
1669,1,ElectricityNet:Facility [J] !Hourly
2049,1,NaturalGas:Facility [J] !Hourly
End of Data Dictionary
1,RUNPERIOD 1,  39.74,-105.18,  -7.00,1829.00
2,1, 1, 1, 0, 1, 0.00,60.00,Holiday
61,13073051.045896191
1669,13073051.04589619
2049,0.0
2,1, 1, 1, 0, 2, 0.00,60.00,Holiday
61,14257832.358501649
1669,14257832.358501649
2049,0.0
2,1, 1, 1, 0, 3, 0.00,60.00,Holiday
61,12690569.95937334
1669,12690569.95937334
2049,0.0
2,1, 1, 1, 0, 4, 0.00,60.00,Holiday
61,12206471.442403384
1669,12206471.442403384
2049,0.0
2,1, 1, 1, 0, 5, 0.00,60.00,Holiday
61,14619309.82360252
1669,14619309.82360252
2049,0.0
2,1, 1, 1, 0, 6, 0.00,60.00,Holiday
61,12726610.355767582
1669,12726610.355767582
2049,0.0
2,1, 1, 1, 0, 7, 0.00,60.00,Holiday
61,13829495.784083694
1669,13829495.784083694
2049,0.0
2,1, 1, 1, 0, 8, 0.00,60.00,Holiday
61,13869732.24849125
1669,13869732.248491248
2049,0.0
2,1, 1, 1, 0, 9, 0.00,60.00,Holiday
61,8793704.749763615
1669,8793704.749763615
2049,0.0
2,1, 1, 1, 0,10, 0.00,60.00,Holiday
61,8448826.608678238
1669,8448826.608678238
2049,0.0
2,1, 1, 1, 0,11, 0.00,60.00,Holiday
61,7704941.295563344
1669,7704941.295563344
2049,0.0
2,1, 1, 1, 0,12, 0.00,60.00,Holiday
61,7911423.331305075
1669,7911423.3313050745
2049,0.0
2,1, 1, 1, 0,13, 0.00,60.00,Holiday
61,6839112.676448794
1669,6839112.676448794
2049,0.0
2,1, 1, 1, 0,14, 0.00,60.00,Holiday
61,7657545.404422677
1669,7657545.404422676
2049,0.0
2,1, 1, 1, 0,15, 0.00,60.00,Holiday
61,8703162.93259027
1669,8703162.93259027
2049,0.0
2,1, 1, 1, 0,16, 0.00,60.00,Holiday
61,8341846.924314847
1669,8341846.924314847
2049,0.0
2,1, 1, 1, 0,17, 0.00,60.00,Holiday
61,10643764.2311662
1669,10643764.2311662
2049,0.0
2,1, 1, 1, 0,18, 0.00,60.00,Holiday
61,12630819.01336418
1669,12630819.013364179
2049,0.0
2,1, 1, 1, 0,19, 0.00,60.00,Holiday
61,12074049.837765323
1669,12074049.837765323
2049,0.0
2,1, 1, 1, 0,20, 0.00,60.00,Holiday
61,13270975.645515142
1669,13270975.645515142
2049,0.0
2,1, 1, 1, 0,21, 0.00,60.00,Holiday
61,14799242.621367646
1669,14799242.621367646
2049,0.0
2,1, 1, 1, 0,22, 0.00,60.00,Holiday
61,13322464.292523475
1669,13322464.292523474
2049,0.0
2,1, 1, 1, 0,23, 0.00,60.00,Holiday
61,15344581.58387633
1669,15344581.58387633
2049,0.0
2,1, 1, 1, 0,24, 0.00,60.00,Holiday
61,16928540.50995119
1669,16928540.50995119
2049,9421.65460365585
2,2, 1, 2, 0, 1, 0.00,60.00,Monday
61,15584029.587883115
1669,15584029.587883115
2049,0.0
2,2, 1, 2, 0, 2, 0.00,60.00,Monday
61,16361212.710901476
1669,16361212.710901475
2049,0.0
2,2, 1, 2, 0, 3, 0.00,60.00,Monday
61,17416683.63322568
1669,17416683.63322568
2049,0.0
2,2, 1, 2, 0, 4, 0.00,60.00,Monday
61,16557063.183158142
1669,16557063.183158144
2049,0.0
2,2, 1, 2, 0, 5, 0.00,60.00,Monday
61,18485013.24020362
1669,18485013.24020362
2049,422490.3530218575
2,2, 1, 2, 0, 6, 0.00,60.00,Monday
61,13033860.706008378
1669,13033860.706008378
2049,15457700.603210043
2,2, 1, 2, 0, 7, 0.00,60.00,Monday
61,19105962.871081777
1669,19105962.871081784
2049,90107760.51395103
2,2, 1, 2, 0, 8, 0.00,60.00,Monday
61,19656220.239957295
1669,19656220.2399573
2049,90107760.51395103
2,2, 1, 2, 0, 9, 0.00,60.00,Monday
61,44694610.74757746
1669,44694610.74757746
2049,78910347.51923741
2,2, 1, 2, 0,10, 0.00,60.00,Monday
61,50982259.92872947
1669,50982259.92872947
2049,45100560.42008118
2,2, 1, 2, 0,11, 0.00,60.00,Monday
61,50757384.03302804
1669,50757384.03302804
2049,22515332.9768842
2,2, 1, 2, 0,12, 0.00,60.00,Monday
61,49786229.854292184
1669,49786229.854292184
2049,11560416.914220285
2,2, 1, 2, 0,13, 0.00,60.00,Monday
61,47221874.988623835
1669,47221874.98862383
2049,16285837.438073453
2,2, 1, 2, 0,14, 0.00,60.00,Monday
61,48087407.2956208
1669,48087407.2956208
2049,4428762.76551008
2,2, 1, 2, 0,15, 0.00,60.00,Monday
61,46621999.89705388
1669,46621999.897053875
2049,3550396.981372275
2,2, 1, 2, 0,16, 0.00,60.00,Monday
61,50762878.25856364
1669,50762878.258563645
2049,5022215.807584644
2,2, 1, 2, 0,17, 0.00,60.00,Monday
61,52558114.67143942
1669,52558114.67143941
2049,6407308.721155031
2,2, 1, 2, 0,18, 0.00,60.00,Monday
61,46577512.03168373
1669,46577512.03168373
2049,26800432.209808704
2,2, 1, 2, 0,19, 0.00,60.00,Monday
61,40749895.2514873
1669,40749895.2514873
2049,25754541.699989557
2,2, 1, 2, 0,20, 0.00,60.00,Monday
61,10883935.254119202
1669,10883935.254119204
2049,0.0
2,2, 1, 2, 0,21, 0.00,60.00,Monday
61,9899331.820964705
1669,9899331.820964705
2049,0.0
2,2, 1, 2, 0,22, 0.00,60.00,Monday
61,9899331.820964705
1669,9899331.820964705
2049,0.0
2,2, 1, 2, 0,23, 0.00,60.00,Monday
61,9013188.731125657
1669,9013188.731125657
2049,0.0
2,2, 1, 2, 0,24, 0.00,60.00,Monday
61,7265454.451684226
1669,7265454.451684226
2049,0.0
2,3, 1, 3, 0, 1, 0.00,60.00,Tuesday
61,9469604.825749658
1669,9469604.82574966
2049,0.0
2,3, 1, 3, 0, 2, 0.00,60.00,Tuesday
61,9469604.825749658
1669,9469604.82574966
2049,0.0
2,3, 1, 3, 0, 3, 0.00,60.00,Tuesday
61,10588747.598861093
1669,10588747.598861095
2049,1081776.843609422
2,3, 1, 3, 0, 4, 0.00,60.00,Tuesday
61,11141814.188538985
1669,11141814.188538985
2049,2165615.117162243
2,3, 1, 3, 0, 5, 0.00,60.00,Tuesday
61,12327155.496059068
1669,12327155.496059068
2049,2623930.145645975
2,3, 1, 3, 0, 6, 0.00,60.00,Tuesday
61,12002337.250022002
1669,12002337.250022002
2049,3118459.5351971705
2,3, 1, 3, 0, 7, 0.00,60.00,Tuesday
61,19105962.871081777
1669,19105962.871081784
2049,87835330.45381056
2,3, 1, 3, 0, 8, 0.00,60.00,Tuesday
61,19593937.667848445
1669,19593937.667848453
2049,90107760.51395103
2,3, 1, 3, 0, 9, 0.00,60.00,Tuesday
61,28830916.343567524
1669,28830916.343567528
2049,78172981.71697219
2,3, 1, 3, 0,10, 0.00,60.00,Tuesday
61,43637566.001276255
1669,43637566.00127626
2049,26898140.200640824
2,3, 1, 3, 0,11, 0.00,60.00,Tuesday
61,46179136.86511814
1669,46179136.86511813
2049,7506393.605162526
2,3, 1, 3, 0,12, 0.00,60.00,Tuesday
61,45142304.1572486
1669,45142304.157248594
2049,3972158.668679123
2,3, 1, 3, 0,13, 0.00,60.00,Tuesday
61,42682268.41123839
1669,42682268.41123839
2049,7401953.941632517
2,3, 1, 3, 0,14, 0.00,60.00,Tuesday
61,41181021.4342219
1669,41181021.43422191
2049,876471.9494186415
2,3, 1, 3, 0,15, 0.00,60.00,Tuesday
61,38382406.11778595
1669,38382406.117785946
2049,507932.75059606705
2,3, 1, 3, 0,16, 0.00,60.00,Tuesday
61,39593411.872532405
1669,39593411.87253241
2049,856334.4154514119
2,3, 1, 3, 0,17, 0.00,60.00,Tuesday
61,43256096.64756155
1669,43256096.647561565
2049,1372541.0992224417
2,3, 1, 3, 0,18, 0.00,60.00,Tuesday
61,41436355.420486994
1669,41436355.420487
2049,14876554.286060104
2,3, 1, 3, 0,19, 0.00,60.00,Tuesday
61,37510813.87463502
1669,37510813.874635026
2049,10465715.791349791
2,3, 1, 3, 0,20, 0.00,60.00,Tuesday
61,10883935.254119202
1669,10883935.254119204
2049,0.0
2,3, 1, 3, 0,21, 0.00,60.00,Tuesday
61,9899331.820964705
1669,9899331.820964705
2049,0.0
2,3, 1, 3, 0,22, 0.00,60.00,Tuesday
61,9899331.820964705
1669,9899331.820964705
2049,0.0
2,3, 1, 3, 0,23, 0.00,60.00,Tuesday
61,9013188.731125657
1669,9013188.731125657
2049,0.0
2,3, 1, 3, 0,24, 0.00,60.00,Tuesday
61,7265454.451684226
1669,7265454.451684226
2049,0.0
2,4, 1, 4, 0, 1, 0.00,60.00,Wednesday
61,9469604.825749658
1669,9469604.82574966
2049,0.0
2,4, 1, 4, 0, 2, 0.00,60.00,Wednesday
61,9469604.825749658
1669,9469604.82574966
2049,0.0
2,4, 1, 4, 0, 3, 0.00,60.00,Wednesday
61,9469604.825749658
1669,9469604.82574966
2049,0.0
2,4, 1, 4, 0, 4, 0.00,60.00,Wednesday
61,9469604.825749658
1669,9469604.82574966
2049,0.0
2,4, 1, 4, 0, 5, 0.00,60.00,Wednesday
61,9469604.825749658
1669,9469604.82574966
2049,0.0
2,4, 1, 4, 0, 6, 0.00,60.00,Wednesday
61,9469604.825749658
1669,9469604.82574966
2049,0.0
2,4, 1, 4, 0, 7, 0.00,60.00,Wednesday
61,38459695.421600185
1669,38459695.42160018
2049,37676327.075226754
2,4, 1, 4, 0, 8, 0.00,60.00,Wednesday
61,40891992.6931725
1669,40891992.69317249
2049,42452811.095004246
2,4, 1, 4, 0, 9, 0.00,60.00,Wednesday
61,46613478.17556819
1669,46613478.17556819
2049,5479907.9981866
2,4, 1, 4, 0,10, 0.00,60.00,Wednesday
61,41173850.06868386
1669,41173850.068683855
2049,72150.16025014443
2,4, 1, 4, 0,11, 0.00,60.00,Wednesday
61,37519420.710638106
1669,37519420.710638106
2049,0.0
2,4, 1, 4, 0,12, 0.00,60.00,Wednesday
61,38484058.41142489
1669,38484058.41142489
2049,0.0
2,4, 1, 4, 0,13, 0.00,60.00,Wednesday
61,36298142.762596175
1669,36298142.762596175
2049,0.0
2,4, 1, 4, 0,14, 0.00,60.00,Wednesday
61,32654720.463657536
1669,32654720.463657536
2049,0.0
2,4, 1, 4, 0,15, 0.00,60.00,Wednesday
61,30015516.60243848
1669,30015516.60243848
2049,0.0
2,4, 1, 4, 0,16, 0.00,60.00,Wednesday
61,31316685.39422845
1669,31316685.39422845
2049,0.0
2,4, 1, 4, 0,17, 0.00,60.00,Wednesday
61,33869251.44315617
1669,33869251.44315617
2049,0.0
2,4, 1, 4, 0,18, 0.00,60.00,Wednesday
61,33317153.16352105
1669,33317153.16352105
2049,0.0
2,4, 1, 4, 0,19, 0.00,60.00,Wednesday
61,29334716.82140176
1669,29334716.821401764
2049,0.0
2,4, 1, 4, 0,20, 0.00,60.00,Wednesday
61,10883935.254119202
1669,10883935.254119204
2049,0.0
2,4, 1, 4, 0,21, 0.00,60.00,Wednesday
61,9899331.820964705
1669,9899331.820964705
2049,0.0
2,4, 1, 4, 0,22, 0.00,60.00,Wednesday
61,9899331.820964705
1669,9899331.820964705
2049,0.0
2,4, 1, 4, 0,23, 0.00,60.00,Wednesday
61,9013188.731125657
1669,9013188.731125657
2049,0.0
2,4, 1, 4, 0,24, 0.00,60.00,Wednesday
61,7265454.451684226
1669,7265454.451684226
2049,0.0
2,5, 1, 5, 0, 1, 0.00,60.00,Thursday
61,9469604.825749658
1669,9469604.82574966
2049,0.0
2,5, 1, 5, 0, 2, 0.00,60.00,Thursday
61,9469604.825749658
1669,9469604.82574966
2049,0.0
2,5, 1, 5, 0, 3, 0.00,60.00,Thursday
61,9469604.825749658
1669,9469604.82574966
2049,0.0
2,5, 1, 5, 0, 4, 0.00,60.00,Thursday
61,8794604.825749658
1669,8794604.82574966
2049,0.0
2,5, 1, 5, 0, 5, 0.00,60.00,Thursday
61,9019604.825749658
1669,9019604.82574966
2049,0.0
2,5, 1, 5, 0, 6, 0.00,60.00,Thursday
61,9469604.825749658
1669,9469604.82574966
2049,0.0
2,5, 1, 5, 0, 7, 0.00,60.00,Thursday
61,31795366.968799096
1669,31795366.968799096
2049,600073.9822305978
2,5, 1, 5, 0, 8, 0.00,60.00,Thursday
61,34275010.82582078
1669,34275010.825820774
2049,0.0
2,5, 1, 5, 0, 9, 0.00,60.00,Thursday
61,36626652.4690735
1669,36626652.4690735
2049,0.0
2,5, 1, 5, 0,10, 0.00,60.00,Thursday
61,33242141.346755244
1669,33242141.346755244
2049,0.0
2,5, 1, 5, 0,11, 0.00,60.00,Thursday
61,28555803.97698327
1669,28555803.97698327
2049,0.0
2,5, 1, 5, 0,12, 0.00,60.00,Thursday
61,29485358.855696652
1669,29485358.85569665
2049,0.0
2,5, 1, 5, 0,13, 0.00,60.00,Thursday
61,26337763.696453445
1669,26337763.696453437
2049,0.0
2,5, 1, 5, 0,14, 0.00,60.00,Thursday
61,28340135.71326987
1669,28340135.71326987
2049,0.0
2,5, 1, 5, 0,15, 0.00,60.00,Thursday
61,27196396.50571584
1669,27196396.505715832
2049,0.0
2,5, 1, 5, 0,16, 0.00,60.00,Thursday
61,28489137.37203339
1669,28489137.37203339
2049,0.0
2,5, 1, 5, 0,17, 0.00,60.00,Thursday
61,30441923.757472247
1669,30441923.75747224
2049,0.0
2,5, 1, 5, 0,18, 0.00,60.00,Thursday
61,26084988.95785506
1669,26084988.95785506
2049,0.0
2,5, 1, 5, 0,19, 0.00,60.00,Thursday
61,23223728.154689427
1669,23223728.15468943
2049,0.0
2,5, 1, 5, 0,20, 0.00,60.00,Thursday
61,10883935.254119202
1669,10883935.254119204
2049,0.0
2,5, 1, 5, 0,21, 0.00,60.00,Thursday
61,9899331.820964705
1669,9899331.820964705
2049,0.0
2,5, 1, 5, 0,22, 0.00,60.00,Thursday
61,9899331.820964705
1669,9899331.820964705
2049,0.0
2,5, 1, 5, 0,23, 0.00,60.00,Thursday
61,9013188.731125657
1669,9013188.731125657
2049,0.0
2,5, 1, 5, 0,24, 0.00,60.00,Thursday
61,7265454.451684226
1669,7265454.451684226
2049,0.0
2,6, 1, 6, 0, 1, 0.00,60.00,Friday
61,9469604.825749658
1669,9469604.82574966
2049,0.0
2,6, 1, 6, 0, 2, 0.00,60.00,Friday
61,9469604.825749658
1669,9469604.82574966
2049,0.0
2,6, 1, 6, 0, 3, 0.00,60.00,Friday
61,8794604.825749658
1669,8794604.82574966
2049,0.0
2,6, 1, 6, 0, 4, 0.00,60.00,Friday
61,8794604.825749658
1669,8794604.82574966
2049,0.0
2,6, 1, 6, 0, 5, 0.00,60.00,Friday
61,9469604.825749658
1669,9469604.82574966
2049,0.0
2,6, 1, 6, 0, 6, 0.00,60.00,Friday
61,9469604.825749658
1669,9469604.82574966
2049,0.0
2,6, 1, 6, 0, 7, 0.00,60.00,Friday
61,27779510.169137158
1669,27779510.16913716
2049,0.0
2,6, 1, 6, 0, 8, 0.00,60.00,Friday
61,31569931.38730121
1669,31569931.38730121
2049,0.0
2,6, 1, 6, 0, 9, 0.00,60.00,Friday
61,31719298.584322535
1669,31719298.58432254
2049,0.0
2,6, 1, 6, 0,10, 0.00,60.00,Friday
61,28900385.218378834
1669,28900385.21837883
2049,0.0
2,6, 1, 6, 0,11, 0.00,60.00,Friday
61,27330570.240424387
1669,27330570.240424387
2049,0.0
2,6, 1, 6, 0,12, 0.00,60.00,Friday
61,28404462.964660246
1669,28404462.964660246
2049,0.0
2,6, 1, 6, 0,13, 0.00,60.00,Friday
61,25404210.76080802
1669,25404210.76080802
2049,0.0
2,6, 1, 6, 0,14, 0.00,60.00,Friday
61,28732050.364871856
1669,28732050.36487186
2049,0.0
2,6, 1, 6, 0,15, 0.00,60.00,Friday
61,27678271.906312622
1669,27678271.906312622
2049,0.0
2,6, 1, 6, 0,16, 0.00,60.00,Friday
61,28845558.798530042
1669,28845558.798530042
2049,0.0
2,6, 1, 6, 0,17, 0.00,60.00,Friday
61,29848311.46493384
1669,29848311.46493384
2049,0.0
2,6, 1, 6, 0,18, 0.00,60.00,Friday
61,25363091.429278664
1669,25363091.429278664
2049,0.0
2,6, 1, 6, 0,19, 0.00,60.00,Friday
61,23778565.29663612
1669,23778565.296636116
2049,0.0
2,6, 1, 6, 0,20, 0.00,60.00,Friday
61,10883935.254119202
1669,10883935.254119204
2049,0.0
2,6, 1, 6, 0,21, 0.00,60.00,Friday
61,9899331.820964705
1669,9899331.820964705
2049,0.0
2,6, 1, 6, 0,22, 0.00,60.00,Friday
61,9899331.820964705
1669,9899331.820964705
2049,0.0
2,6, 1, 6, 0,23, 0.00,60.00,Friday
61,9013188.731125657
1669,9013188.731125657
2049,0.0
2,6, 1, 6, 0,24, 0.00,60.00,Friday
61,7265454.451684226
1669,7265454.451684226
2049,0.0
2,7, 1, 7, 0, 1, 0.00,60.00,Saturday
61,6404338.596677196
1669,6404338.596677196
2049,0.0
2,7, 1, 7, 0, 2, 0.00,60.00,Saturday
61,6404338.596677196
1669,6404338.596677196
2049,0.0
2,7, 1, 7, 0, 3, 0.00,60.00,Saturday
61,6404338.596677196
1669,6404338.596677196
2049,0.0
2,7, 1, 7, 0, 4, 0.00,60.00,Saturday
61,6404338.596677196
1669,6404338.596677196
2049,0.0
2,7, 1, 7, 0, 5, 0.00,60.00,Saturday
61,6404338.596677196
1669,6404338.596677196
2049,0.0
2,7, 1, 7, 0, 6, 0.00,60.00,Saturday
61,6404338.596677196
1669,6404338.596677196
2049,0.0
2,7, 1, 7, 0, 7, 0.00,60.00,Saturday
61,7595938.596677196
1669,7595938.596677196
2049,0.0
2,7, 1, 7, 0, 8, 0.00,60.00,Saturday
61,5945428.596677196
1669,5945428.596677196
2049,0.0
2,7, 1, 7, 0, 9, 0.00,60.00,Saturday
61,5395258.596677196
1669,5395258.596677196
2049,0.0
2,7, 1, 7, 0,10, 0.00,60.00,Saturday
61,4720258.596677196
1669,4720258.596677196
2049,0.0
2,7, 1, 7, 0,11, 0.00,60.00,Saturday
61,4495258.596677196
1669,4495258.596677196
2049,0.0
2,7, 1, 7, 0,12, 0.00,60.00,Saturday
61,4495258.596677196
1669,4495258.596677196
2049,0.0
2,7, 1, 7, 0,13, 0.00,60.00,Saturday
61,4495258.596677196
1669,4495258.596677196
2049,0.0
2,7, 1, 7, 0,14, 0.00,60.00,Saturday
61,4495258.596677196
1669,4495258.596677196
2049,0.0
2,7, 1, 7, 0,15, 0.00,60.00,Saturday
61,4495258.596677196
1669,4495258.596677196
2049,0.0
2,7, 1, 7, 0,16, 0.00,60.00,Saturday
61,4495258.596677196
1669,4495258.596677196
2049,0.0
2,7, 1, 7, 0,17, 0.00,60.00,Saturday
61,5270428.596677196
1669,5270428.596677196
2049,0.0
2,7, 1, 7, 0,18, 0.00,60.00,Saturday
61,7595938.596677196
1669,7595938.596677196
2049,0.0
2,7, 1, 7, 0,19, 0.00,60.00,Saturday
61,7595938.596677196
1669,7595938.596677196
2049,0.0
2,7, 1, 7, 0,20, 0.00,60.00,Saturday
61,6794038.596677196
1669,6794038.596677196
2049,0.0
2,7, 1, 7, 0,21, 0.00,60.00,Saturday
61,6794038.596677196
1669,6794038.596677196
2049,0.0
2,7, 1, 7, 0,22, 0.00,60.00,Saturday
61,6794038.596677196
1669,6794038.596677196
2049,0.0
2,7, 1, 7, 0,23, 0.00,60.00,Saturday
61,6794038.596677196
1669,6794038.596677196
2049,0.0
2,7, 1, 7, 0,24, 0.00,60.00,Saturday
61,6794038.596677196
1669,6794038.596677196
2049,0.0
2,8, 1, 8, 0, 1, 0.00,60.00,Sunday
61,6404338.596677196
1669,6404338.596677196
2049,0.0
2,8, 1, 8, 0, 2, 0.00,60.00,Sunday
61,6404338.596677196
1669,6404338.596677196
2049,0.0
2,8, 1, 8, 0, 3, 0.00,60.00,Sunday
61,6404338.596677196
1669,6404338.596677196
2049,0.0
2,8, 1, 8, 0, 4, 0.00,60.00,Sunday
61,6404338.596677196
1669,6404338.596677196
2049,0.0
2,8, 1, 8, 0, 5, 0.00,60.00,Sunday
61,6404338.596677196
1669,6404338.596677196
2049,0.0
2,8, 1, 8, 0, 6, 0.00,60.00,Sunday
61,6404338.596677196
1669,6404338.596677196
2049,0.0
2,8, 1, 8, 0, 7, 0.00,60.00,Sunday
61,7595938.596677196
1669,7595938.596677196
2049,0.0
2,8, 1, 8, 0, 8, 0.00,60.00,Sunday
61,5945428.596677196
1669,5945428.596677196
2049,0.0
2,8, 1, 8, 0, 9, 0.00,60.00,Sunday
61,5395258.596677196
1669,5395258.596677196
2049,0.0
2,8, 1, 8, 0,10, 0.00,60.00,Sunday
61,5395258.596677196
1669,5395258.596677196
2049,0.0
2,8, 1, 8, 0,11, 0.00,60.00,Sunday
61,5395258.596677196
1669,5395258.596677196
2049,0.0
2,8, 1, 8, 0,12, 0.00,60.00,Sunday
61,5395258.596677196
1669,5395258.596677196
2049,0.0
2,8, 1, 8, 0,13, 0.00,60.00,Sunday
61,5395258.596677196
1669,5395258.596677196
2049,0.0
2,8, 1, 8, 0,14, 0.00,60.00,Sunday
61,5395258.596677196
1669,5395258.596677196
2049,0.0
2,8, 1, 8, 0,15, 0.00,60.00,Sunday
61,5395258.596677196
1669,5395258.596677196
2049,0.0
2,8, 1, 8, 0,16, 0.00,60.00,Sunday
61,5395258.596677196
1669,5395258.596677196
2049,0.0
2,8, 1, 8, 0,17, 0.00,60.00,Sunday
61,5945428.596677196
1669,5945428.596677196
2049,0.0
2,8, 1, 8, 0,18, 0.00,60.00,Sunday
61,7595938.596677196
1669,7595938.596677196
2049,0.0
2,8, 1, 8, 0,19, 0.00,60.00,Sunday
61,7595938.596677196
1669,7595938.596677196
2049,0.0
2,8, 1, 8, 0,20, 0.00,60.00,Sunday
61,6794038.596677196
1669,6794038.596677196
2049,0.0
2,8, 1, 8, 0,21, 0.00,60.00,Sunday
61,6794038.596677196
1669,6794038.596677196
2049,0.0
2,8, 1, 8, 0,22, 0.00,60.00,Sunday
61,6794038.596677196
1669,6794038.596677196
2049,0.0
2,8, 1, 8, 0,23, 0.00,60.00,Sunday
61,6794038.596677196
1669,6794038.596677196
2049,0.0
2,8, 1, 8, 0,24, 0.00,60.00,Sunday
61,6794038.596677196
1669,6794038.596677196
2049,0.0
2,9, 1, 9, 0, 1, 0.00,60.00,Monday
61,9469604.825749658
1669,9469604.82574966
2049,0.0
2,9, 1, 9, 0, 2, 0.00,60.00,Monday
61,9469604.825749658
1669,9469604.82574966
2049,0.0
2,9, 1, 9, 0, 3, 0.00,60.00,Monday
61,9469604.825749658
1669,9469604.82574966
2049,0.0
2,9, 1, 9, 0, 4, 0.00,60.00,Monday
61,9469604.825749658
1669,9469604.82574966
2049,0.0
2,9, 1, 9, 0, 5, 0.00,60.00,Monday
61,9469604.825749658
1669,9469604.82574966
2049,0.0
2,9, 1, 9, 0, 6, 0.00,60.00,Monday
61,9469604.825749658
1669,9469604.82574966
2049,0.0
2,9, 1, 9, 0, 7, 0.00,60.00,Monday
61,34841891.69438266
1669,34841891.69438267
2049,14938799.689256445
2,9, 1, 9, 0, 8, 0.00,60.00,Monday
61,37838272.2052612
1669,37838272.2052612
2049,17153456.401781544
2,9, 1, 9, 0, 9, 0.00,60.00,Monday
61,37168243.712897725
1669,37168243.71289772
2049,772344.1306442096
2,9, 1, 9, 0,10, 0.00,60.00,Monday
61,33354623.81196587
1669,33354623.811965868
2049,0.0
2,9, 1, 9, 0,11, 0.00,60.00,Monday
61,30104754.886103425
1669,30104754.886103418
2049,0.0
2,9, 1, 9, 0,12, 0.00,60.00,Monday
61,30618167.94595613
1669,30618167.94595613
2049,0.0
2,9, 1, 9, 0,13, 0.00,60.00,Monday
61,27631854.41121248
1669,27631854.411212478
2049,0.0
2,9, 1, 9, 0,14, 0.00,60.00,Monday
61,29885963.744661853
1669,29885963.744661853
2049,0.0
2,9, 1, 9, 0,15, 0.00,60.00,Monday
61,28632232.25769194
1669,28632232.25769194
2049,0.0
2,9, 1, 9, 0,16, 0.00,60.00,Monday
61,29615977.575915694
1669,29615977.575915694
2049,0.0
2,9, 1, 9, 0,17, 0.00,60.00,Monday
61,31169302.923209354
1669,31169302.923209354
2049,0.0
2,9, 1, 9, 0,18, 0.00,60.00,Monday
61,27184632.76990398
1669,27184632.76990398
2049,0.0
2,9, 1, 9, 0,19, 0.00,60.00,Monday
61,23987868.039632514
1669,23987868.039632514
2049,0.0
2,9, 1, 9, 0,20, 0.00,60.00,Monday
61,10883935.254119202
1669,10883935.254119204
2049,0.0
2,9, 1, 9, 0,21, 0.00,60.00,Monday
61,9899331.820964705
1669,9899331.820964705
2049,0.0
2,9, 1, 9, 0,22, 0.00,60.00,Monday
61,9899331.820964705
1669,9899331.820964705
2049,0.0
2,9, 1, 9, 0,23, 0.00,60.00,Monday
61,9013188.731125657
1669,9013188.731125657
2049,0.0
2,9, 1, 9, 0,24, 0.00,60.00,Monday
61,7265454.451684226
1669,7265454.451684226
2049,0.0
2,10, 1,10, 0, 1, 0.00,60.00,Tuesday
61,9469604.825749658
1669,9469604.82574966
2049,0.0
2,10, 1,10, 0, 2, 0.00,60.00,Tuesday
61,9244604.825749658
1669,9244604.82574966
2049,0.0
2,10, 1,10, 0, 3, 0.00,60.00,Tuesday
61,8569604.825749658
1669,8569604.82574966
2049,0.0
2,10, 1,10, 0, 4, 0.00,60.00,Tuesday
61,9469604.825749658
1669,9469604.82574966
2049,0.0
2,10, 1,10, 0, 5, 0.00,60.00,Tuesday
61,9019604.825749658
1669,9019604.82574966
2049,0.0
2,10, 1,10, 0, 6, 0.00,60.00,Tuesday
61,8569604.825749658
1669,8569604.82574966
2049,0.0
2,10, 1,10, 0, 7, 0.00,60.00,Tuesday
61,26264900.5452373
1669,26264900.545237307
2049,0.0
2,10, 1,10, 0, 8, 0.00,60.00,Tuesday
61,27495717.592760563
1669,27495717.592760563
2049,0.0
2,10, 1,10, 0, 9, 0.00,60.00,Tuesday
61,30014846.36086415
1669,30014846.36086415
2049,0.0
2,10, 1,10, 0,10, 0.00,60.00,Tuesday
61,28844665.701535717
1669,28844665.70153572
2049,0.0
2,10, 1,10, 0,11, 0.00,60.00,Tuesday
61,27794594.838810157
1669,27794594.838810153
2049,0.0
2,10, 1,10, 0,12, 0.00,60.00,Tuesday
61,28980954.793503333
1669,28980954.79350333
2049,0.0
2,10, 1,10, 0,13, 0.00,60.00,Tuesday
61,25818655.706035193
1669,25818655.70603519
2049,0.0
2,10, 1,10, 0,14, 0.00,60.00,Tuesday
61,29235916.255418926
1669,29235916.25541892
2049,0.0
2,10, 1,10, 0,15, 0.00,60.00,Tuesday
61,28914129.444952067
1669,28914129.444952063
2049,0.0
2,10, 1,10, 0,16, 0.00,60.00,Tuesday
61,30093711.553413868
1669,30093711.553413868
2049,0.0
2,10, 1,10, 0,17, 0.00,60.00,Tuesday
61,31023435.847903114
1669,31023435.847903118
2049,0.0
2,10, 1,10, 0,18, 0.00,60.00,Tuesday
61,25536938.046855353
1669,25536938.04685535
2049,0.0
2,10, 1,10, 0,19, 0.00,60.00,Tuesday
61,22052021.25401349
1669,22052021.25401349
2049,0.0
2,10, 1,10, 0,20, 0.00,60.00,Tuesday
61,10883935.254119202
1669,10883935.254119204
2049,0.0
2,10, 1,10, 0,21, 0.00,60.00,Tuesday
61,9899331.820964705
1669,9899331.820964705
2049,0.0
2,10, 1,10, 0,22, 0.00,60.00,Tuesday
61,9899331.820964705
1669,9899331.820964705
2049,0.0
2,10, 1,10, 0,23, 0.00,60.00,Tuesday
61,9013188.731125657
1669,9013188.731125657
2049,0.0
2,10, 1,10, 0,24, 0.00,60.00,Tuesday
61,6365454.451684226
1669,6365454.451684226
2049,0.0
2,11, 1,11, 0, 1, 0.00,60.00,Wednesday
61,8794604.825749658
1669,8794604.82574966
2049,0.0
2,11, 1,11, 0, 2, 0.00,60.00,Wednesday
61,9469604.825749658
1669,9469604.82574966
2049,0.0
2,11, 1,11, 0, 3, 0.00,60.00,Wednesday
61,9019604.825749658
1669,9019604.82574966
2049,0.0
2,11, 1,11, 0, 4, 0.00,60.00,Wednesday
61,9019604.825749658
1669,9019604.82574966
2049,0.0
2,11, 1,11, 0, 5, 0.00,60.00,Wednesday
61,9469604.825749658
1669,9469604.82574966
2049,0.0
2,11, 1,11, 0, 6, 0.00,60.00,Wednesday
61,9469604.825749658
1669,9469604.82574966
2049,0.0
2,11, 1,11, 0, 7, 0.00,60.00,Wednesday
61,23423099.618546706
1669,23423099.618546706
2049,0.0
2,11, 1,11, 0, 8, 0.00,60.00,Wednesday
61,25764235.67318025
1669,25764235.673180252
2049,0.0
2,11, 1,11, 0, 9, 0.00,60.00,Wednesday
61,29368077.81056145
1669,29368077.81056145
2049,0.0
2,11, 1,11, 0,10, 0.00,60.00,Wednesday
61,28076003.39220617
1669,28076003.39220617
2049,0.0
2,11, 1,11, 0,11, 0.00,60.00,Wednesday
61,26648202.210501656
1669,26648202.210501652
2049,0.0
2,11, 1,11, 0,12, 0.00,60.00,Wednesday
61,27841148.541295737
1669,27841148.541295737
2049,0.0
2,11, 1,11, 0,13, 0.00,60.00,Wednesday
61,24975826.27600051
1669,24975826.27600051
2049,0.0
2,11, 1,11, 0,14, 0.00,60.00,Wednesday
61,27981728.084954463
1669,27981728.084954463
2049,0.0
2,11, 1,11, 0,15, 0.00,60.00,Wednesday
61,27375836.271258734
1669,27375836.27125873
2049,0.0
2,11, 1,11, 0,16, 0.00,60.00,Wednesday
61,28698132.115559254
1669,28698132.115559254
2049,0.0
2,11, 1,11, 0,17, 0.00,60.00,Wednesday
61,29690269.01205778
1669,29690269.01205778
2049,0.0
2,11, 1,11, 0,18, 0.00,60.00,Wednesday
61,22632347.61144214
1669,22632347.61144214
2049,0.0
2,11, 1,11, 0,19, 0.00,60.00,Wednesday
61,17946241.978903748
1669,17946241.978903748
2049,0.0
2,11, 1,11, 0,20, 0.00,60.00,Wednesday
61,9983935.254119202
1669,9983935.254119204
2049,0.0
2,11, 1,11, 0,21, 0.00,60.00,Wednesday
61,8999331.820964705
1669,8999331.820964705
2049,0.0
2,11, 1,11, 0,22, 0.00,60.00,Wednesday
61,8999331.820964705
1669,8999331.820964705
2049,0.0
2,11, 1,11, 0,23, 0.00,60.00,Wednesday
61,8113188.731125657
1669,8113188.731125657
2049,0.0
2,11, 1,11, 0,24, 0.00,60.00,Wednesday
61,6365454.451684226
1669,6365454.451684226
2049,0.0
2,12, 1,12, 0, 1, 0.00,60.00,Thursday
61,9019604.825749658
1669,9019604.82574966
2049,0.0
2,12, 1,12, 0, 2, 0.00,60.00,Thursday
61,9469604.825749658
1669,9469604.82574966
2049,0.0
2,12, 1,12, 0, 3, 0.00,60.00,Thursday
61,9469604.825749658
1669,9469604.82574966
2049,0.0
2,12, 1,12, 0, 4, 0.00,60.00,Thursday
61,9469604.825749658
1669,9469604.82574966
2049,0.0
2,12, 1,12, 0, 5, 0.00,60.00,Thursday
61,9469604.825749658
1669,9469604.82574966
2049,0.0
2,12, 1,12, 0, 6, 0.00,60.00,Thursday
61,9469604.825749658
1669,9469604.82574966
2049,0.0
2,12, 1,12, 0, 7, 0.00,60.00,Thursday
61,22807266.59185355
1669,22807266.591853555
2049,0.0
2,12, 1,12, 0, 8, 0.00,60.00,Thursday
61,28033777.987249188
1669,28033777.987249196
2049,0.0
2,12, 1,12, 0, 9, 0.00,60.00,Thursday
61,30038166.445088107
1669,30038166.44508811
2049,0.0
2,12, 1,12, 0,10, 0.00,60.00,Thursday
61,28859254.788774263
1669,28859254.788774263
2049,0.0
2,12, 1,12, 0,11, 0.00,60.00,Thursday
61,27412713.50976066
1669,27412713.50976066
2049,0.0
2,12, 1,12, 0,12, 0.00,60.00,Thursday
61,28077726.087177392
1669,28077726.08717739
2049,0.0
2,12, 1,12, 0,13, 0.00,60.00,Thursday
61,25541827.017214008
1669,25541827.017214
2049,0.0
2,12, 1,12, 0,14, 0.00,60.00,Thursday
61,27626474.10540094
1669,27626474.105400942
2049,0.0
2,12, 1,12, 0,15, 0.00,60.00,Thursday
61,26716313.959382676
1669,26716313.959382676
2049,0.0
2,12, 1,12, 0,16, 0.00,60.00,Thursday
61,28152842.938811276
1669,28152842.938811276
2049,0.0
2,12, 1,12, 0,17, 0.00,60.00,Thursday
61,30188860.65375478
1669,30188860.653754786
2049,0.0
2,12, 1,12, 0,18, 0.00,60.00,Thursday
61,26888264.389502496
1669,26888264.389502496
2049,0.0
2,12, 1,12, 0,19, 0.00,60.00,Thursday
61,23664922.368678566
1669,23664922.368678562
2049,0.0
2,12, 1,12, 0,20, 0.00,60.00,Thursday
61,10883935.254119202
1669,10883935.254119204
2049,0.0
2,12, 1,12, 0,21, 0.00,60.00,Thursday
61,9899331.820964705
1669,9899331.820964705
2049,0.0
2,12, 1,12, 0,22, 0.00,60.00,Thursday
61,9899331.820964705
1669,9899331.820964705
2049,0.0
2,12, 1,12, 0,23, 0.00,60.00,Thursday
61,9013188.731125657
1669,9013188.731125657
2049,0.0
2,12, 1,12, 0,24, 0.00,60.00,Thursday
61,7265454.451684226
1669,7265454.451684226
2049,0.0
2,13, 1,13, 0, 1, 0.00,60.00,Friday
61,9469604.825749658
1669,9469604.82574966
2049,0.0
2,13, 1,13, 0, 2, 0.00,60.00,Friday
61,9469604.825749658
1669,9469604.82574966
2049,0.0
2,13, 1,13, 0, 3, 0.00,60.00,Friday
61,9469604.825749658
1669,9469604.82574966
2049,0.0
2,13, 1,13, 0, 4, 0.00,60.00,Friday
61,9469604.825749658
1669,9469604.82574966
2049,0.0
2,13, 1,13, 0, 5, 0.00,60.00,Friday
61,9469604.825749658
1669,9469604.82574966
2049,0.0
2,13, 1,13, 0, 6, 0.00,60.00,Friday
61,9469604.825749658
1669,9469604.82574966
2049,0.0
2,13, 1,13, 0, 7, 0.00,60.00,Friday
61,27918235.747804865
1669,27918235.747804865
2049,10375.13112225598
2,13, 1,13, 0, 8, 0.00,60.00,Friday
61,32643941.959081568
1669,32643941.95908157
2049,646877.0830199714
2,13, 1,13, 0, 9, 0.00,60.00,Friday
61,31979983.7050838
1669,31979983.7050838
2049,0.0
2,13, 1,13, 0,10, 0.00,60.00,Friday
61,32041070.088376183
1669,32041070.088376183
2049,0.0
2,13, 1,13, 0,11, 0.00,60.00,Friday
61,29685002.267891403
1669,29685002.2678914
2049,0.0
2,13, 1,13, 0,12, 0.00,60.00,Friday
61,29414827.06823188
1669,29414827.06823188
2049,0.0
2,13, 1,13, 0,13, 0.00,60.00,Friday
61,28336762.25976912
1669,28336762.25976912
2049,0.0
2,13, 1,13, 0,14, 0.00,60.00,Friday
61,29396631.2048271
1669,29396631.204827104
2049,0.0
2,13, 1,13, 0,15, 0.00,60.00,Friday
61,28164206.823102713
1669,28164206.823102713
2049,0.0
2,13, 1,13, 0,16, 0.00,60.00,Friday
61,29214985.384438593
1669,29214985.384438593
2049,0.0
2,13, 1,13, 0,17, 0.00,60.00,Friday
61,30616424.485690564
1669,30616424.485690564
2049,0.0
2,13, 1,13, 0,18, 0.00,60.00,Friday
61,29710616.746940996
1669,29710616.746941
2049,0.0
2,13, 1,13, 0,19, 0.00,60.00,Friday
61,25972633.380927872
1669,25972633.380927876
2049,0.0
2,13, 1,13, 0,20, 0.00,60.00,Friday
61,10883935.254119202
1669,10883935.254119204
2049,0.0
2,13, 1,13, 0,21, 0.00,60.00,Friday
61,9899331.820964705
1669,9899331.820964705
2049,0.0
2,13, 1,13, 0,22, 0.00,60.00,Friday
61,9899331.820964705
1669,9899331.820964705
2049,0.0
2,13, 1,13, 0,23, 0.00,60.00,Friday
61,9013188.731125657
1669,9013188.731125657
2049,0.0
2,13, 1,13, 0,24, 0.00,60.00,Friday
61,7265454.451684226
1669,7265454.451684226
2049,0.0
2,14, 1,14, 0, 1, 0.00,60.00,Saturday
61,6404338.596677196
1669,6404338.596677196
2049,0.0
2,14, 1,14, 0, 2, 0.00,60.00,Saturday
61,6404338.596677196
1669,6404338.596677196
2049,0.0
2,14, 1,14, 0, 3, 0.00,60.00,Saturday
61,6404338.596677196
1669,6404338.596677196
2049,0.0
2,14, 1,14, 0, 4, 0.00,60.00,Saturday
61,6404338.596677196
1669,6404338.596677196
2049,0.0
2,14, 1,14, 0, 5, 0.00,60.00,Saturday
61,6404338.596677196
1669,6404338.596677196
2049,0.0
2,14, 1,14, 0, 6, 0.00,60.00,Saturday
61,6404338.596677196
1669,6404338.596677196
2049,0.0