Program Version,EnergyPlus, Version 25.2.0-cf7368216c, YMD=2026.01.19 13:15
1,5,Environment Title[],Latitude[deg],Longitude[deg],Time Zone[],Elevation[m]
2,8,Day of Simulation[],Month[],Day of Month[],DST Indicator[1=yes 0=no],Hour[],StartMinute[],EndMinute[],DayType
3,5,Cumulative Day of Simulation[],Month[],Day of Month[],DST Indicator[1=yes 0=no],DayType  ! When Daily Meters Requested
4,2,Cumulative Days of Simulation[],Month[]  ! When Monthly Meters Requested
5,1,Cumulative Days of Simulation[] ! When Run Period Meters Requested
6,1,Calendar Year of Simulation[] ! When Annual Meters Requested
111,1,Electricity:Facility [J] !Hourly
1722,1,ElectricityNet:Facility [J] !Hourly
2102,1,NaturalGas:Facility [J] !Hourly
End of Data Dictionary
1,RUNPERIOD 1,  39.83,-104.65,  -7.00,1650.00
2,1, 1, 1, 0, 1, 0.00,60.00,Holiday
111,12126507.212548219
1722,12126507.212548219
2102,4081457.9477853235
2,1, 1, 1, 0, 2, 0.00,60.00,Holiday
111,9889649.816498186
1722,9889649.816498186
2102,14326969.677888395
2,1, 1, 1, 0, 3, 0.00,60.00,Holiday
111,9637807.231633753
1722,9637807.231633753
2102,11748447.388705974
2,1, 1, 1, 0, 4, 0.00,60.00,Holiday
111,8979721.994755626
1722,8979721.994755628
2102,11521660.344459621
2,1, 1, 1, 0, 5, 0.00,60.00,Holiday
111,9889649.816498186
1722,9889649.816498186
2102,16841164.13387582
2,1, 1, 1, 0, 6, 0.00,60.00,Holiday
111,14382278.473449808
1722,14382278.473449808
2102,3244463.0368393883
2,1, 1, 1, 0, 7, 0.00,60.00,Holiday
111,15479941.981816368
1722,15479941.981816364
2102,619411.965976307
2,1, 1, 1, 0, 8, 0.00,60.00,Holiday
111,16546838.721808288
1722,16546838.721808286
2102,818576.7524436631
2,1, 1, 1, 0, 9, 0.00,60.00,Holiday
111,12670276.260866294
1722,12670276.260866294
2102,0.0
2,1, 1, 1, 0,10, 0.00,60.00,Holiday
111,9322369.08634065
1722,9322369.08634065
2102,0.0
2,1, 1, 1, 0,11, 0.00,60.00,Holiday
111,9139113.54716511
1722,9139113.54716511
2102,0.0
2,1, 1, 1, 0,12, 0.00,60.00,Holiday
111,7488316.319016601
1722,7488316.3190166
2102,0.0
2,1, 1, 1, 0,13, 0.00,60.00,Holiday
111,6729664.150298975
1722,6729664.150298976
2102,0.0
2,1, 1, 1, 0,14, 0.00,60.00,Holiday
111,7479676.845918836
1722,7479676.845918836
2102,0.0
2,1, 1, 1, 0,15, 0.00,60.00,Holiday
111,6951468.611291282
1722,6951468.61129128
2102,0.0
2,1, 1, 1, 0,16, 0.00,60.00,Holiday
111,6552865.103153927
1722,6552865.103153927
2102,0.0
2,1, 1, 1, 0,17, 0.00,60.00,Holiday
111,9257824.100943971
1722,9257824.10094397
2102,0.0
2,1, 1, 1, 0,18, 0.00,60.00,Holiday
111,11018466.260498067
1722,11018466.260498066
2102,0.0
2,1, 1, 1, 0,19, 0.00,60.00,Holiday
111,10895597.373164287
1722,10895597.373164285
2102,0.0
2,1, 1, 1, 0,20, 0.00,60.00,Holiday
111,13416841.186118282
1722,13416841.186118282
2102,0.0
2,1, 1, 1, 0,21, 0.00,60.00,Holiday
111,12304157.356012335
1722,12304157.356012335
2102,0.0
2,1, 1, 1, 0,22, 0.00,60.00,Holiday
111,11206058.042231359
1722,11206058.042231359
2102,0.0
2,1, 1, 1, 0,23, 0.00,60.00,Holiday
111,14339998.46604606
1722,14339998.46604606
2102,0.0
2,1, 1, 1, 0,24, 0.00,60.00,Holiday
111,13692620.417899527
1722,13692620.417899525
2102,0.0
2,2, 1, 2, 0, 1, 0.00,60.00,Monday
111,15343294.695023764
1722,15343294.695023764
2102,0.0
2,2, 1, 2, 0, 2, 0.00,60.00,Monday
111,17517490.29606294
1722,17517490.29606294
2102,0.0
2,2, 1, 2, 0, 3, 0.00,60.00,Monday
111,15888732.248262519
1722,15888732.24826252
2102,0.0
2,2, 1, 2, 0, 4, 0.00,60.00,Monday
111,15474935.40121293
1722,15474935.40121293
2102,0.0
2,2, 1, 2, 0, 5, 0.00,60.00,Monday
111,17263633.19850099
1722,17263633.19850099
2102,0.0
2,2, 1, 2, 0, 6, 0.00,60.00,Monday
111,15384124.059593301
1722,15384124.059593301
2102,0.0
2,2, 1, 2, 0, 7, 0.00,60.00,Monday
111,39782309.657828204
1722,39782309.657828204
2102,62250712.56270944
2,2, 1, 2, 0, 8, 0.00,60.00,Monday
111,40723284.8257474
1722,40723284.8257474
2102,55339779.20435557
2,2, 1, 2, 0, 9, 0.00,60.00,Monday
111,49688860.80811978
1722,49688860.80811977
2102,17160347.342764854
2,2, 1, 2, 0,10, 0.00,60.00,Monday
111,45989563.43931782
1722,45989563.43931782
2102,3832820.4057372753
2,2, 1, 2, 0,11, 0.00,60.00,Monday
111,39277522.91002163
1722,39277522.91002163
2102,0.0
2,2, 1, 2, 0,12, 0.00,60.00,Monday
111,36656509.24333565
1722,36656509.24333565
2102,0.0
2,2, 1, 2, 0,13, 0.00,60.00,Monday
111,33916790.17437493
1722,33916790.17437493
2102,0.0
2,2, 1, 2, 0,14, 0.00,60.00,Monday
111,33386523.49911956
1722,33386523.499119557
2102,0.0
2,2, 1, 2, 0,15, 0.00,60.00,Monday
111,31103470.94461092
1722,31103470.94461092
2102,0.0
2,2, 1, 2, 0,16, 0.00,60.00,Monday
111,32327514.232554663
1722,32327514.232554663
2102,0.0
2,2, 1, 2, 0,17, 0.00,60.00,Monday
111,35073658.0498047
1722,35073658.0498047
2102,0.0
2,2, 1, 2, 0,18, 0.00,60.00,Monday
111,33656665.11999688
1722,33656665.11999688
2102,0.0
2,2, 1, 2, 0,19, 0.00,60.00,Monday
111,31492961.258059643
1722,31492961.258059643
2102,0.0
2,2, 1, 2, 0,20, 0.00,60.00,Monday
111,10883935.254119202
1722,10883935.254119204
2102,0.0
2,2, 1, 2, 0,21, 0.00,60.00,Monday
111,9899331.820964705
1722,9899331.820964705
2102,0.0
2,2, 1, 2, 0,22, 0.00,60.00,Monday
111,9899331.820964705
1722,9899331.820964705
2102,0.0
2,2, 1, 2, 0,23, 0.00,60.00,Monday
111,9013188.731125657
1722,9013188.731125657
2102,0.0
2,2, 1, 2, 0,24, 0.00,60.00,Monday
111,7265454.451684226
1722,7265454.451684226
2102,0.0
2,3, 1, 3, 0, 1, 0.00,60.00,Tuesday
111,9469604.825749658
1722,9469604.82574966
2102,0.0
2,3, 1, 3, 0, 2, 0.00,60.00,Tuesday
111,9469604.825749658
1722,9469604.82574966
2102,0.0
2,3, 1, 3, 0, 3, 0.00,60.00,Tuesday
111,9469604.825749658
1722,9469604.82574966
2102,0.0
2,3, 1, 3, 0, 4, 0.00,60.00,Tuesday
111,9469604.825749658
1722,9469604.82574966
2102,0.0
2,3, 1, 3, 0, 5, 0.00,60.00,Tuesday
111,9469604.825749658
1722,9469604.82574966
2102,0.0
2,3, 1, 3, 0, 6, 0.00,60.00,Tuesday
111,9469604.825749658
1722,9469604.82574966
2102,0.0
2,3, 1, 3, 0, 7, 0.00,60.00,Tuesday
111,38601573.0098739
1722,38601573.0098739
2102,19322536.17106937
2,3, 1, 3, 0, 8, 0.00,60.00,Tuesday
111,39103086.7332491
1722,39103086.73324909
2102,16779755.227520358
2,3, 1, 3, 0, 9, 0.00,60.00,Tuesday
111,40706481.501224324
1722,40706481.50122432
2102,61878.403942464996
2,3, 1, 3, 0,10, 0.00,60.00,Tuesday
111,35417953.44807866
1722,35417953.44807866
2102,0.0
2,3, 1, 3, 0,11, 0.00,60.00,Tuesday
111,30953866.88212307
1722,30953866.88212307
2102,0.0
2,3, 1, 3, 0,12, 0.00,60.00,Tuesday
111,31063115.218298364
1722,31063115.218298364
2102,0.0
2,3, 1, 3, 0,13, 0.00,60.00,Tuesday
111,28889956.52372305
1722,28889956.523723047
2102,0.0
2,3, 1, 3, 0,14, 0.00,60.00,Tuesday
111,30611777.016230784
1722,30611777.016230784
2102,0.0
2,3, 1, 3, 0,15, 0.00,60.00,Tuesday
111,29919755.534857977
1722,29919755.53485798
2102,0.0
2,3, 1, 3, 0,16, 0.00,60.00,Tuesday
111,32275852.11357409
1722,32275852.113574088
2102,0.0
2,3, 1, 3, 0,17, 0.00,60.00,Tuesday
111,36023790.147512764
1722,36023790.14751276
2102,0.0
2,3, 1, 3, 0,18, 0.00,60.00,Tuesday
111,37645716.52361858
1722,37645716.52361858
2102,2801921.743856576
2,3, 1, 3, 0,19, 0.00,60.00,Tuesday
111,33364575.639262803
1722,33364575.639262803
2102,2374057.131282922
2,3, 1, 3, 0,20, 0.00,60.00,Tuesday
111,10883935.254119202
1722,10883935.254119204
2102,0.0
2,3, 1, 3, 0,21, 0.00,60.00,Tuesday
111,9899331.820964705
1722,9899331.820964705
2102,0.0
2,3, 1, 3, 0,22, 0.00,60.00,Tuesday
111,9899331.820964705
1722,9899331.820964705
2102,0.0
2,3, 1, 3, 0,23, 0.00,60.00,Tuesday
111,9013188.731125657
1722,9013188.731125657
2102,0.0
2,3, 1, 3, 0,24, 0.00,60.00,Tuesday
111,7265454.451684226
1722,7265454.451684226
2102,0.0
2,4, 1, 4, 0, 1, 0.00,60.00,Wednesday
111,9469604.825749658
1722,9469604.82574966
2102,0.0
2,4, 1, 4, 0, 2, 0.00,60.00,Wednesday
111,9469604.825749658
1722,9469604.82574966
2102,0.0
2,4, 1, 4, 0, 3, 0.00,60.00,Wednesday
111,9469604.825749658
1722,9469604.82574966
2102,0.0
2,4, 1, 4, 0, 4, 0.00,60.00,Wednesday
111,9469604.825749658
1722,9469604.82574966
2102,0.0
2,4, 1, 4, 0, 5, 0.00,60.00,Wednesday
111,9469604.825749658
1722,9469604.82574966
2102,0.0
2,4, 1, 4, 0, 6, 0.00,60.00,Wednesday
111,9469604.825749658
1722,9469604.82574966
2102,0.0
2,4, 1, 4, 0, 7, 0.00,60.00,Wednesday
111,27449162.793296456
1722,27449162.79329646
2102,50717412.35557075
2,4, 1, 4, 0, 8, 0.00,60.00,Wednesday
111,39382013.56873116
1722,39382013.56873116
2102,39823485.51198045
2,4, 1, 4, 0, 9, 0.00,60.00,Wednesday
111,44701660.26594263
1722,44701660.265942626
2102,4713917.479252972
2,4, 1, 4, 0,10, 0.00,60.00,Wednesday
111,39823808.81885517
1722,39823808.81885517
2102,235725.21290492054
2,4, 1, 4, 0,11, 0.00,60.00,Wednesday
111,34480312.22189313
1722,34480312.22189313
2102,0.0
2,4, 1, 4, 0,12, 0.00,60.00,Wednesday
111,33852247.24869286
1722,33852247.248692855
2102,0.0
2,4, 1, 4, 0,13, 0.00,60.00,Wednesday
111,30844982.100393385
1722,30844982.100393385
2102,0.0
2,4, 1, 4, 0,14, 0.00,60.00,Wednesday
111,30552180.29726375
1722,30552180.29726374
2102,0.0
2,4, 1, 4, 0,15, 0.00,60.00,Wednesday
111,28310683.83832528
1722,28310683.83832528
2102,0.0
2,4, 1, 4, 0,16, 0.00,60.00,Wednesday
111,29498272.262454942
1722,29498272.26245495
2102,0.0
2,4, 1, 4, 0,17, 0.00,60.00,Wednesday
111,31556007.229118925
1722,31556007.229118925
2102,0.0
2,4, 1, 4, 0,18, 0.00,60.00,Wednesday
111,28144927.4549491
1722,28144927.454949103
2102,0.0
2,4, 1, 4, 0,19, 0.00,60.00,Wednesday
111,23623344.16926741
1722,23623344.16926741
2102,0.0
2,4, 1, 4, 0,20, 0.00,60.00,Wednesday
111,9983935.254119202
1722,9983935.254119204
2102,0.0
2,4, 1, 4, 0,21, 0.00,60.00,Wednesday
111,8999331.820964705
1722,8999331.820964705
2102,0.0
2,4, 1, 4, 0,22, 0.00,60.00,Wednesday
111,8999331.820964705
1722,8999331.820964705
2102,0.0
2,4, 1, 4, 0,23, 0.00,60.00,Wednesday
111,8113188.731125657
1722,8113188.731125657
2102,0.0
2,4, 1, 4, 0,24, 0.00,60.00,Wednesday
111,6365454.451684226
1722,6365454.451684226
2102,0.0
2,5, 1, 5, 0, 1, 0.00,60.00,Thursday
111,8569604.825749658
1722,8569604.82574966
2102,0.0
2,5, 1, 5, 0, 2, 0.00,60.00,Thursday
111,8569604.825749658
1722,8569604.82574966
2102,0.0
2,5, 1, 5, 0, 3, 0.00,60.00,Thursday
111,8569604.825749658
1722,8569604.82574966
2102,0.0
2,5, 1, 5, 0, 4, 0.00,60.00,Thursday
111,8569604.825749658
1722,8569604.82574966
2102,0.0
2,5, 1, 5, 0, 5, 0.00,60.00,Thursday
111,8569604.825749658
1722,8569604.82574966
2102,0.0
2,5, 1, 5, 0, 6, 0.00,60.00,Thursday
111,8569604.825749658
1722,8569604.82574966
2102,0.0
2,5, 1, 5, 0, 7, 0.00,60.00,Thursday
111,27021914.982439466
1722,27021914.982439466
2102,0.0
2,5, 1, 5, 0, 8, 0.00,60.00,Thursday
111,27026023.508458283
1722,27026023.508458283
2102,0.0
2,5, 1, 5, 0, 9, 0.00,60.00,Thursday
111,29576428.60713108
1722,29576428.607131075
2102,0.0
2,5, 1, 5, 0,10, 0.00,60.00,Thursday
111,28467866.047427468
1722,28467866.047427468
2102,0.0
2,5, 1, 5, 0,11, 0.00,60.00,Thursday
111,26842020.415951096
1722,26842020.415951088
2102,0.0
2,5, 1, 5, 0,12, 0.00,60.00,Thursday
111,27866893.631462477
1722,27866893.631462477
2102,0.0
2,5, 1, 5, 0,13, 0.00,60.00,Thursday
111,25097911.995901525
1722,25097911.995901525
2102,0.0
2,5, 1, 5, 0,14, 0.00,60.00,Thursday
111,28366907.199984442
1722,28366907.19998444
2102,0.0
2,5, 1, 5, 0,15, 0.00,60.00,Thursday
111,27213915.944972254
1722,27213915.944972254
2102,0.0
2,5, 1, 5, 0,16, 0.00,60.00,Thursday
111,28084327.11844804
1722,28084327.118448034
2102,0.0
2,5, 1, 5, 0,17, 0.00,60.00,Thursday
111,29780118.214576002
1722,29780118.214576
2102,0.0
2,5, 1, 5, 0,18, 0.00,60.00,Thursday
111,23935506.68346575
1722,23935506.68346575
2102,0.0
2,5, 1, 5, 0,19, 0.00,60.00,Thursday
111,20314165.65069816
1722,20314165.65069816
2102,0.0
2,5, 1, 5, 0,20, 0.00,60.00,Thursday
111,10883935.254119202
1722,10883935.254119204
2102,0.0
2,5, 1, 5, 0,21, 0.00,60.00,Thursday
111,9899331.820964705
1722,9899331.820964705
2102,0.0
2,5, 1, 5, 0,22, 0.00,60.00,Thursday
111,9899331.820964705
1722,9899331.820964705
2102,0.0
2,5, 1, 5, 0,23, 0.00,60.00,Thursday
111,9013188.731125657
1722,9013188.731125657
2102,0.0
2,5, 1, 5, 0,24, 0.00,60.00,Thursday
111,7265454.451684226
1722,7265454.451684226
2102,0.0
2,6, 1, 6, 0, 1, 0.00,60.00,Friday
111,9469604.825749658
1722,9469604.82574966
2102,0.0
2,6, 1, 6, 0, 2, 0.00,60.00,Friday
111,9469604.825749658
1722,9469604.82574966
2102,0.0
2,6, 1, 6, 0, 3, 0.00,60.00,Friday
111,9469604.825749658
1722,9469604.82574966
2102,0.0
2,6, 1, 6, 0, 4, 0.00,60.00,Friday
111,9469604.825749658
1722,9469604.82574966
2102,0.0
2,6, 1, 6, 0, 5, 0.00,60.00,Friday
111,9469604.825749658
1722,9469604.82574966
2102,0.0
2,6, 1, 6, 0, 6, 0.00,60.00,Friday
111,9469604.825749658
1722,9469604.82574966
2102,0.0
2,6, 1, 6, 0, 7, 0.00,60.00,Friday
111,27704975.778582133
1722,27704975.778582133
2102,320402.32888489804
2,6, 1, 6, 0, 8, 0.00,60.00,Friday
111,31247322.196450993
1722,31247322.19645099
2102,0.0
2,6, 1, 6, 0, 9, 0.00,60.00,Friday
111,32587544.448992282
1722,32587544.448992282
2102,0.0
2,6, 1, 6, 0,10, 0.00,60.00,Friday
111,31029782.64076305
1722,31029782.640763044
2102,0.0
2,6, 1, 6, 0,11, 0.00,60.00,Friday
111,29465045.92794192
1722,29465045.927941915
2102,0.0
2,6, 1, 6, 0,12, 0.00,60.00,Friday
111,29916934.307190463
1722,29916934.307190463
2102,0.0
2,6, 1, 6, 0,13, 0.00,60.00,Friday
111,27503904.483489614
1722,27503904.48348961
2102,0.0
2,6, 1, 6, 0,14, 0.00,60.00,Friday
111,29469252.172623478
1722,29469252.172623478
2102,0.0
2,6, 1, 6, 0,15, 0.00,60.00,Friday
111,28450992.8720038
1722,28450992.8720038
2102,0.0
2,6, 1, 6, 0,16, 0.00,60.00,Friday
111,29568469.909800474
1722,29568469.909800474
2102,0.0
2,6, 1, 6, 0,17, 0.00,60.00,Friday
111,31884081.115806784
1722,31884081.11580678
2102,0.0
2,6, 1, 6, 0,18, 0.00,60.00,Friday
111,29159725.67027691
1722,29159725.670276914
2102,0.0
2,6, 1, 6, 0,19, 0.00,60.00,Friday
111,25228124.460088257
1722,25228124.46008826
2102,0.0
2,6, 1, 6, 0,20, 0.00,60.00,Friday
111,10883935.254119202
1722,10883935.254119204
2102,0.0
2,6, 1, 6, 0,21, 0.00,60.00,Friday
111,9899331.820964705
1722,9899331.820964705
2102,0.0
2,6, 1, 6, 0,22, 0.00,60.00,Friday
111,9899331.820964705
1722,9899331.820964705
2102,0.0
2,6, 1, 6, 0,23, 0.00,60.00,Friday
111,9013188.731125657
1722,9013188.731125657
2102,0.0
2,6, 1, 6, 0,24, 0.00,60.00,Friday
111,7265454.451684226
1722,7265454.451684226
2102,0.0
2,7, 1, 7, 0, 1, 0.00,60.00,Saturday
111,6404338.596677196
1722,6404338.596677196
2102,0.0
2,7, 1, 7, 0, 2, 0.00,60.00,Saturday
111,6404338.596677196
1722,6404338.596677196
2102,0.0
2,7, 1, 7, 0, 3, 0.00,60.00,Saturday
111,6404338.596677196
1722,6404338.596677196
2102,0.0
2,7, 1, 7, 0, 4, 0.00,60.00,Saturday
111,6404338.596677196
1722,6404338.596677196
2102,0.0
2,7, 1, 7, 0, 5, 0.00,60.00,Saturday
111,6404338.596677196
1722,6404338.596677196
2102,0.0
2,7, 1, 7, 0, 6, 0.00,60.00,Saturday
111,6404338.596677196
1722,6404338.596677196
2102,0.0
2,7, 1, 7, 0, 7, 0.00,60.00,Saturday
111,7595938.596677196
1722,7595938.596677196
2102,0.0
2,7, 1, 7, 0, 8, 0.00,60.00,Saturday
111,5945428.596677196
1722,5945428.596677196
2102,0.0
2,7, 1, 7, 0, 9, 0.00,60.00,Saturday
111,5395258.596677196
1722,5395258.596677196
2102,0.0
2,7, 1, 7, 0,10, 0.00,60.00,Saturday
111,5395258.596677196
1722,5395258.596677196
2102,0.0
2,7, 1, 7, 0,11, 0.00,60.00,Saturday
111,5395258.596677196
1722,5395258.596677196
2102,0.0
2,7, 1, 7, 0,12, 0.00,60.00,Saturday
111,4945258.596677196
1722,4945258.596677196
2102,0.0
2,7, 1, 7, 0,13, 0.00,60.00,Saturday
111,4495258.596677196
1722,4495258.596677196
2102,0.0
2,7, 1, 7, 0,14, 0.00,60.00,Saturday
111,4495258.596677196
1722,4495258.596677196
2102,0.0
2,7, 1, 7, 0,15, 0.00,60.00,Saturday
111,4495258.596677196
1722,4495258.596677196
2102,0.0
2,7, 1, 7, 0,16, 0.00,60.00,Saturday
111,4495258.596677196
1722,4495258.596677196
2102,0.0
2,7, 1, 7, 0,17, 0.00,60.00,Saturday
111,5595598.596677196
1722,5595598.596677196
2102,0.0
2,7, 1, 7, 0,18, 0.00,60.00,Saturday
111,6695938.596677196
1722,6695938.596677196
2102,0.0
2,7, 1, 7, 0,19, 0.00,60.00,Saturday
111,6695938.596677196
1722,6695938.596677196
2102,0.0
2,7, 1, 7, 0,20, 0.00,60.00,Saturday
111,5894038.596677196
1722,5894038.596677196
2102,0.0
2,7, 1, 7, 0,21, 0.00,60.00,Saturday
111,6794038.596677196
1722,6794038.596677196
2102,0.0
2,7, 1, 7, 0,22, 0.00,60.00,Saturday
111,6794038.596677196
1722,6794038.596677196
2102,0.0
2,7, 1, 7, 0,23, 0.00,60.00,Saturday
111,6794038.596677196
1722,6794038.596677196
2102,0.0
2,7, 1, 7, 0,24, 0.00,60.00,Saturday
111,6794038.596677196
1722,6794038.596677196
2102,0.0
2,8, 1, 8, 0, 1, 0.00,60.00,Sunday
111,6404338.596677196
1722,6404338.596677196
2102,0.0
2,8, 1, 8, 0, 2, 0.00,60.00,Sunday
111,6404338.596677196
1722,6404338.596677196
2102,0.0
2,8, 1, 8, 0, 3, 0.00,60.00,Sunday
111,6404338.596677196
1722,6404338.596677196
2102,0.0
2,8, 1, 8, 0, 4, 0.00,60.00,Sunday
111,6404338.596677196
1722,6404338.596677196
2102,0.0
2,8, 1, 8, 0, 5, 0.00,60.00,Sunday
111,6404338.596677196
1722,6404338.596677196
2102,0.0
2,8, 1, 8, 0, 6, 0.00,60.00,Sunday
111,6404338.596677196
1722,6404338.596677196
2102,0.0
2,8, 1, 8, 0, 7, 0.00,60.00,Sunday
111,7595938.596677196
1722,7595938.596677196
2102,0.0
2,8, 1, 8, 0, 8, 0.00,60.00,Sunday
111,5945428.596677196
1722,5945428.596677196
2102,0.0
2,8, 1, 8, 0, 9, 0.00,60.00,Sunday
111,5395258.596677196
1722,5395258.596677196
2102,0.0
2,8, 1, 8, 0,10, 0.00,60.00,Sunday
111,5170258.596677196
1722,5170258.596677196
2102,0.0
2,8, 1, 8, 0,11, 0.00,60.00,Sunday
111,4495258.596677196
1722,4495258.596677196
2102,0.0
2,8, 1, 8, 0,12, 0.00,60.00,Sunday
111,4495258.596677196
1722,4495258.596677196
2102,0.0
2,8, 1, 8, 0,13, 0.00,60.00,Sunday
111,4495258.596677196
1722,4495258.596677196
2102,0.0
2,8, 1, 8, 0,14, 0.00,60.00,Sunday
111,4495258.596677196
1722,4495258.596677196
2102,0.0
2,8, 1, 8, 0,15, 0.00,60.00,Sunday
111,4495258.596677196
1722,4495258.596677196
2102,0.0
2,8, 1, 8, 0,16, 0.00,60.00,Sunday
111,4495258.596677196
1722,4495258.596677196
2102,0.0
2,8, 1, 8, 0,17, 0.00,60.00,Sunday
111,5595598.596677196
1722,5595598.596677196
2102,0.0
2,8, 1, 8, 0,18, 0.00,60.00,Sunday
111,7595938.596677196
1722,7595938.596677196
2102,0.0
2,8, 1, 8, 0,19, 0.00,60.00,Sunday
111,7595938.596677196
1722,7595938.596677196
2102,0.0
2,8, 1, 8, 0,20, 0.00,60.00,Sunday
111,6794038.596677196
1722,6794038.596677196
2102,0.0
2,8, 1, 8, 0,21, 0.00,60.00,Sunday
111,6794038.596677196
1722,6794038.596677196
2102,0.0
2,8, 1, 8, 0,22, 0.00,60.00,Sunday
111,6794038.596677196
1722,6794038.596677196
2102,0.0
2,8, 1, 8, 0,23, 0.00,60.00,Sunday
111,6794038.596677196
1722,6794038.596677196
2102,0.0
2,8, 1, 8, 0,24, 0.00,60.00,Sunday
111,6794038.596677196
1722,6794038.596677196
2102,0.0
2,9, 1, 9, 0, 1, 0.00,60.00,Monday
111,9469604.825749658
1722,9469604.82574966
2102,0.0
2,9, 1, 9, 0, 2, 0.00,60.00,Monday
111,9469604.825749658
1722,9469604.82574966
2102,0.0
2,9, 1, 9, 0, 3, 0.00,60.00,Monday
111,9469604.825749658
1722,9469604.82574966
2102,0.0
2,9, 1, 9, 0, 4, 0.00,60.00,Monday
111,9469604.825749658
1722,9469604.82574966
2102,0.0
2,9, 1, 9, 0, 5, 0.00,60.00,Monday
111,9469604.825749658
1722,9469604.82574966
2102,0.0
2,9, 1, 9, 0, 6, 0.00,60.00,Monday
111,9469604.825749658
1722,9469604.82574966
2102,0.0
2,9, 1, 9, 0, 7, 0.00,60.00,Monday
111,37924149.94739347
1722,37924149.94739346
2102,24247190.391893007
2,9, 1, 9, 0, 8, 0.00,60.00,Monday
111,39036690.15913199
1722,39036690.15913199
2102,21395292.817438938
2,9, 1, 9, 0, 9, 0.00,60.00,Monday
111,39156101.23906414
1722,39156101.23906414
2102,1600238.4763733188
2,9, 1, 9, 0,10, 0.00,60.00,Monday
111,35245076.71390939
1722,35245076.71390939
2102,0.0
2,9, 1, 9, 0,11, 0.00,60.00,Monday
111,32142244.906107377
1722,32142244.906107374
2102,0.0
2,9, 1, 9, 0,12, 0.00,60.00,Monday
111,33072195.754930068
1722,33072195.754930064
2102,0.0
2,9, 1, 9, 0,13, 0.00,60.00,Monday
111,30203493.61606163
1722,30203493.616061628
2102,0.0
2,9, 1, 9, 0,14, 0.00,60.00,Monday
111,31958126.714481194
1722,31958126.714481194
2102,0.0
2,9, 1, 9, 0,15, 0.00,60.00,Monday
111,29618179.287745252
1722,29618179.28774525
2102,0.0
2,9, 1, 9, 0,16, 0.00,60.00,Monday
111,31120580.349287793
1722,31120580.349287793
2102,0.0
2,9, 1, 9, 0,17, 0.00,60.00,Monday
111,32506616.04273167
1722,32506616.04273167
2102,0.0
2,9, 1, 9, 0,18, 0.00,60.00,Monday
111,30247732.388843473
1722,30247732.38884347
2102,0.0
2,9, 1, 9, 0,19, 0.00,60.00,Monday
111,27506418.839067444
1722,27506418.839067437
2102,0.0
2,9, 1, 9, 0,20, 0.00,60.00,Monday
111,10883935.254119202
1722,10883935.254119204
2102,0.0
2,9, 1, 9, 0,21, 0.00,60.00,Monday
111,9899331.820964705
1722,9899331.820964705
2102,0.0
2,9, 1, 9, 0,22, 0.00,60.00,Monday
111,9899331.820964705
1722,9899331.820964705
2102,0.0
2,9, 1, 9, 0,23, 0.00,60.00,Monday
111,9013188.731125657
1722,9013188.731125657
2102,0.0
2,9, 1, 9, 0,24, 0.00,60.00,Monday
111,7265454.451684226
1722,7265454.451684226
2102,0.0
2,10, 1,10, 0, 1, 0.00,60.00,Tuesday
111,9469604.825749658
1722,9469604.82574966
2102,0.0
2,10, 1,10, 0, 2, 0.00,60.00,Tuesday
111,9469604.825749658
1722,9469604.82574966
2102,0.0
2,10, 1,10, 0, 3, 0.00,60.00,Tuesday
111,9469604.825749658
1722,9469604.82574966
2102,0.0
2,10, 1,10, 0, 4, 0.00,60.00,Tuesday
111,9469604.825749658
1722,9469604.82574966
2102,0.0
2,10, 1,10, 0, 5, 0.00,60.00,Tuesday
111,9469604.825749658
1722,9469604.82574966
2102,0.0
2,10, 1,10, 0, 6, 0.00,60.00,Tuesday
111,9469604.825749658
1722,9469604.82574966
2102,0.0
2,10, 1,10, 0, 7, 0.00,60.00,Tuesday
111,34858123.58888633
1722,34858123.588886335
2102,14715200.896939725
2,10, 1,10, 0, 8, 0.00,60.00,Tuesday
111,37453565.27922986
1722,37453565.27922985
2102,16338845.729694016
2,10, 1,10, 0, 9, 0.00,60.00,Tuesday
111,37514521.813772514
1722,37514521.8137725
2102,558894.3432508949
2,10, 1,10, 0,10, 0.00,60.00,Tuesday
111,33562210.80779019
1722,33562210.80779019
2102,0.0
2,10, 1,10, 0,11, 0.00,60.00,Tuesday
111,30319401.428458627
1722,30319401.42845863
2102,0.0
2,10, 1,10, 0,12, 0.00,60.00,Tuesday
111,30142706.035449922
1722,30142706.035449915
2102,0.0
2,10, 1,10, 0,13, 0.00,60.00,Tuesday
111,27054761.02224683
1722,27054761.02224683
2102,0.0
2,10, 1,10, 0,14, 0.00,60.00,Tuesday
111,29043962.88585905
1722,29043962.88585905
2102,0.0
2,10, 1,10, 0,15, 0.00,60.00,Tuesday
111,28038980.635112666
1722,28038980.635112666
2102,0.0
2,10, 1,10, 0,16, 0.00,60.00,Tuesday
111,28965457.068275474
1722,28965457.068275467
2102,0.0
2,10, 1,10, 0,17, 0.00,60.00,Tuesday
111,30591385.268547688
1722,30591385.268547688
2102,0.0
2,10, 1,10, 0,18, 0.00,60.00,Tuesday
111,27270151.263994385
1722,27270151.26399438
2102,0.0
2,10, 1,10, 0,19, 0.00,60.00,Tuesday
111,24001890.315675758
1722,24001890.315675758
2102,0.0
2,10, 1,10, 0,20, 0.00,60.00,Tuesday
111,10883935.254119202
1722,10883935.254119204
2102,0.0
2,10, 1,10, 0,21, 0.00,60.00,Tuesday
111,9899331.820964705
1722,9899331.820964705
2102,0.0
2,10, 1,10, 0,22, 0.00,60.00,Tuesday
111,9899331.820964705
1722,9899331.820964705
2102,0.0
2,10, 1,10, 0,23, 0.00,60.00,Tuesday
111,9013188.731125657
1722,9013188.731125657
2102,0.0
2,10, 1,10, 0,24, 0.00,60.00,Tuesday
111,7265454.451684226
1722,7265454.451684226
2102,0.0
2,11, 1,11, 0, 1, 0.00,60.00,Wednesday
111,9469604.825749658
1722,9469604.82574966
2102,0.0
2,11, 1,11, 0, 2, 0.00,60.00,Wednesday
111,9469604.825749658
1722,9469604.82574966
2102,0.0
2,11, 1,11, 0, 3, 0.00,60.00,Wednesday
111,9469604.825749658
1722,9469604.82574966
2102,0.0
2,11, 1,11, 0, 4, 0.00,60.00,Wednesday
111,9469604.825749658
1722,9469604.82574966
2102,0.0
2,11, 1,11, 0, 5, 0.00,60.00,Wednesday
111,9469604.825749658
1722,9469604.82574966
2102,0.0
2,11, 1,11, 0, 6, 0.00,60.00,Wednesday
111,9469604.825749658
1722,9469604.82574966
2102,0.0
2,11, 1,11, 0, 7, 0.00,60.00,Wednesday
111,32114212.38988236
1722,32114212.389882363
2102,6521327.407897484
2,11, 1,11, 0, 8, 0.00,60.00,Wednesday
111,34388748.18705747
1722,34388748.18705747
2102,7576094.5186815765
2,11, 1,11, 0, 9, 0.00,60.00,Wednesday
111,36029048.56049217
1722,36029048.56049217
2102,0.0
2,11, 1,11, 0,10, 0.00,60.00,Wednesday
111,32723354.116194434
1722,32723354.116194434
2102,0.0
2,11, 1,11, 0,11, 0.00,60.00,Wednesday
111,28916205.305252016
1722,28916205.305252016
2102,0.0
2,11, 1,11, 0,12, 0.00,60.00,Wednesday
111,28429970.405588396
1722,28429970.40558839
2102,0.0
2,11, 1,11, 0,13, 0.00,60.00,Wednesday
111,25606735.20841723
1722,25606735.20841723
2102,0.0
2,11, 1,11, 0,14, 0.00,60.00,Wednesday
111,28172574.969711803
1722,28172574.969711803
2102,0.0
2,11, 1,11, 0,15, 0.00,60.00,Wednesday
111,27009738.7698626
1722,27009738.7698626
2102,0.0
2,11, 1,11, 0,16, 0.00,60.00,Wednesday
111,27947914.62397118
1722,27947914.62397118
2102,0.0
2,11, 1,11, 0,17, 0.00,60.00,Wednesday
111,29376833.954622433
1722,29376833.95462243
2102,0.0
2,11, 1,11, 0,18, 0.00,60.00,Wednesday
111,23655308.579515774
1722,23655308.579515774
2102,0.0
2,11, 1,11, 0,19, 0.00,60.00,Wednesday
111,19515606.290400147
1722,19515606.290400147
2102,0.0
2,11, 1,11, 0,20, 0.00,60.00,Wednesday
111,9983935.254119202
1722,9983935.254119204
2102,0.0
2,11, 1,11, 0,21, 0.00,60.00,Wednesday
111,8999331.820964705
1722,8999331.820964705
2102,0.0
2,11, 1,11, 0,22, 0.00,60.00,Wednesday
111,8999331.820964705
1722,8999331.820964705
2102,0.0
2,11, 1,11, 0,23, 0.00,60.00,Wednesday
111,8113188.731125657
1722,8113188.731125657
2102,0.0
2,11, 1,11, 0,24, 0.00,60.00,Wednesday
111,7265454.451684226
1722,7265454.451684226
2102,0.0
2,12, 1,12, 0, 1, 0.00,60.00,Thursday
111,9469604.825749658
1722,9469604.82574966
2102,0.0
2,12, 1,12, 0, 2, 0.00,60.00,Thursday
111,9469604.825749658
1722,9469604.82574966
2102,0.0
2,12, 1,12, 0, 3, 0.00,60.00,Thursday
111,9469604.825749658
1722,9469604.82574966
2102,0.0
2,12, 1,12, 0, 4, 0.00,60.00,Thursday
111,9469604.825749658
1722,9469604.82574966
2102,0.0
2,12, 1,12, 0, 5, 0.00,60.00,Thursday
111,9469604.825749658
1722,9469604.82574966
2102,0.0
2,12, 1,12, 0, 6, 0.00,60.00,Thursday
111,9469604.825749658
1722,9469604.82574966
2102,0.0
2,12, 1,12, 0, 7, 0.00,60.00,Thursday
111,30285059.465666782
1722,30285059.46566678
2102,2421375.5323954117
2,12, 1,12, 0, 8, 0.00,60.00,Thursday
111,33663421.55032459
1722,33663421.55032458
2102,6401069.814559054
2,12, 1,12, 0, 9, 0.00,60.00,Thursday
111,36074258.11552724
1722,36074258.11552724
2102,0.0
2,12, 1,12, 0,10, 0.00,60.00,Thursday
111,33358369.323711
1722,33358369.323710993
2102,0.0
2,12, 1,12, 0,11, 0.00,60.00,Thursday
111,29333653.146832652
1722,29333653.146832652
2102,0.0
2,12, 1,12, 0,12, 0.00,60.00,Thursday
111,29255742.067796115
1722,29255742.067796115
2102,0.0
2,12, 1,12, 0,13, 0.00,60.00,Thursday
111,27160024.356946614
1722,27160024.356946614
2102,0.0
2,12, 1,12, 0,14, 0.00,60.00,Thursday
111,28602498.762626074
1722,28602498.76262607
2102,0.0
2,12, 1,12, 0,15, 0.00,60.00,Thursday
111,27516381.281667992
1722,27516381.28166799
2102,0.0
2,12, 1,12, 0,16, 0.00,60.00,Thursday
111,28813003.44760324
1722,28813003.447603237
2102,0.0
2,12, 1,12, 0,17, 0.00,60.00,Thursday
111,29912446.367975444
1722,29912446.367975444
2102,0.0
2,12, 1,12, 0,18, 0.00,60.00,Thursday
111,28448092.29026083
1722,28448092.290260825
2102,0.0
2,12, 1,12, 0,19, 0.00,60.00,Thursday
111,23496960.321639553
1722,23496960.321639553
2102,0.0
2,12, 1,12, 0,20, 0.00,60.00,Thursday
111,10883935.254119202
1722,10883935.254119204
2102,0.0
2,12, 1,12, 0,21, 0.00,60.00,Thursday
111,9899331.820964705
1722,9899331.820964705
2102,0.0
2,12, 1,12, 0,22, 0.00,60.00,Thursday
111,9899331.820964705
1722,9899331.820964705
2102,0.0
2,12, 1,12, 0,23, 0.00,60.00,Thursday
111,9013188.731125657
1722,9013188.731125657
2102,0.0
2,12, 1,12, 0,24, 0.00,60.00,Thursday
111,7265454.451684226
1722,7265454.451684226
2102,0.0
2,13, 1,13, 0, 1, 0.00,60.00,Friday
111,9469604.825749658
1722,9469604.82574966
2102,0.0
2,13, 1,13, 0, 2, 0.00,60.00,Friday
111,9469604.825749658
1722,9469604.82574966
2102,0.0
2,13, 1,13, 0, 3, 0.00,60.00,Friday
111,9469604.825749658
1722,9469604.82574966
2102,0.0
2,13, 1,13, 0, 4, 0.00,60.00,Friday
111,9469604.825749658
1722,9469604.82574966
2102,0.0
2,13, 1,13, 0, 5, 0.00,60.00,Friday
111,9469604.825749658
1722,9469604.82574966
2102,0.0
2,13, 1,13, 0, 6, 0.00,60.00,Friday
111,9469604.825749658
1722,9469604.82574966
2102,0.0
2,13, 1,13, 0, 7, 0.00,60.00,Friday
111,27603763.96705444
1722,27603763.967054445
2102,0.0
2,13, 1,13, 0, 8, 0.00,60.00,Friday
111,28952447.405750997
1722,28952447.405751
2102,0.0
2,13, 1,13, 0, 9, 0.00,60.00,Friday
111,30247398.620963328
1722,30247398.620963328
2102,0.0
2,13, 1,13, 0,10, 0.00,60.00,Friday
111,28817483.535816204
1722,28817483.5358162
2102,0.0
2,13, 1,13, 0,11, 0.00,60.00,Friday
111,27050462.316766065
1722,27050462.316766065
2102,0.0
2,13, 1,13, 0,12, 0.00,60.00,Friday
111,28118718.711039033
1722,28118718.711039033
2102,0.0
2,13, 1,13, 0,13, 0.00,60.00,Friday
111,25091209.60231396
1722,25091209.60231396
2102,0.0
2,13, 1,13, 0,14, 0.00,60.00,Friday
111,28738179.22006632
1722,28738179.22006632
2102,0.0
2,13, 1,13, 0,15, 0.00,60.00,Friday
111,27955387.54592985
1722,27955387.54592985
2102,0.0
2,13, 1,13, 0,16, 0.00,60.00,Friday
111,29025677.47557544
1722,29025677.475575436
2102,0.0
2,13, 1,13, 0,17, 0.00,60.00,Friday
111,29914607.63878716
1722,29914607.638787158
2102,0.0
2,13, 1,13, 0,18, 0.00,60.00,Friday
111,22820380.004989013
1722,22820380.004989013
2102,0.0
2,13, 1,13, 0,19, 0.00,60.00,Friday
111,18390405.016461425
1722,18390405.016461425
2102,0.0
2,13, 1,13, 0,20, 0.00,60.00,Friday
111,9983935.254119202
1722,9983935.254119204
2102,0.0
2,13, 1,13, 0,21, 0.00,60.00,Friday
111,8999331.820964705
1722,8999331.820964705
2102,0.0
2,13, 1,13, 0,22, 0.00,60.00,Friday
111,9449331.820964705
1722,9449331.820964705
2102,0.0
2,13, 1,13, 0,23, 0.00,60.00,Friday
111,9013188.731125657
1722,9013188.731125657
2102,0.0
2,13, 1,13, 0,24, 0.00,60.00,Friday
111,7265454.451684226
1722,7265454.451684226
2102,0.0
2,14, 1,14, 0, 1, 0.00,60.00,Saturday
111,5954338.596677196
1722,5954338.596677196
2102,0.0
2,14, 1,14, 0, 2, 0.00,60.00,Saturday
111,5504338.596677196
1722,5504338.596677196
2102,0.0
2,14, 1,14, 0, 3, 0.00,60.00,Saturday
111,5504338.596677196
1722,5504338.596677196
2102,0.0
2,14, 1,14, 0, 4, 0.00,60.00,Saturday
111,5504338.596677196
1722,5504338.596677196
2102,0.0
2,14, 1,14, 0, 5, 0.00,60.00,Saturday