Program Version,EnergyPlus, Version 23.2.0-7636e6b3e9, YMD=2023.11.02 15:22
1,5,Environment Title[],Latitude[deg],Longitude[deg],Time Zone[],Elevation[m]
2,8,Day of Simulation[],Month[],Day of Month[],DST Indicator[1=yes 0=no],Hour[],StartMinute[],EndMinute[],DayType
3,5,Cumulative Day of Simulation[],Month[],Day of Month[],DST Indicator[1=yes 0=no],DayType  ! When Daily Meters Requested
4,2,Cumulative Days of Simulation[],Month[]  ! When Monthly Meters Requested
5,1,Cumulative Days of Simulation[] ! When Run Period Meters Requested
6,1,Calendar Year of Simulation[] ! When Annual Meters Requested
61,1,Electricity:Facility [J] !Hourly
1669,1,ElectricityNet:Facility [J] !Hourly
2049,1,NaturalGas:Facility [J] !Hourly
End of Data Dictionary
1,RUNPERIOD 1,  39.74,-105.18,  -7.00,1829.00
2,1, 1, 1, 0, 1, 0.00,60.00,Holiday
61,13073051.045857169
1669,13073051.045857169
2049,0.0
2,1, 1, 1, 0, 2, 0.00,60.00,Holiday
61,14257832.3584477
1669,14257832.3584477
2049,0.0
2,1, 1, 1, 0, 3, 0.00,60.00,Holiday
61,12690569.959334224
1669,12690569.959334224
2049,0.0
2,1, 1, 1, 0, 4, 0.00,60.00,Holiday
61,12206471.442374187
1669,12206471.442374185
2049,0.0
2,1, 1, 1, 0, 5, 0.00,60.00,Holiday
61,14619309.823547121
1669,14619309.823547121
2049,0.0
2,1, 1, 1, 0, 6, 0.00,60.00,Holiday
61,12726610.35573235
1669,12726610.355732352
2049,0.0
2,1, 1, 1, 0, 7, 0.00,60.00,Holiday
61,13829495.784055723
1669,13829495.784055721
2049,0.0
2,1, 1, 1, 0, 8, 0.00,60.00,Holiday
61,13869732.248438437
1669,13869732.248438433
2049,0.0
2,1, 1, 1, 0, 9, 0.00,60.00,Holiday
61,8793704.749735003
1669,8793704.749735001
2049,0.0
2,1, 1, 1, 0,10, 0.00,60.00,Holiday
61,8448826.608658945
1669,8448826.608658947
2049,0.0
2,1, 1, 1, 0,11, 0.00,60.00,Holiday
61,7704941.295545234
1669,7704941.295545235
2049,0.0
2,1, 1, 1, 0,12, 0.00,60.00,Holiday
61,7911423.331287064
1669,7911423.331287064
2049,0.0
2,1, 1, 1, 0,13, 0.00,60.00,Holiday
61,6839112.676439334
1669,6839112.676439334
2049,0.0
2,1, 1, 1, 0,14, 0.00,60.00,Holiday
61,7657545.404405939
1669,7657545.404405939
2049,0.0
2,1, 1, 1, 0,15, 0.00,60.00,Holiday
61,8703162.93257195
1669,8703162.932571951
2049,0.0
2,1, 1, 1, 0,16, 0.00,60.00,Holiday
61,8341846.924298715
1669,8341846.924298716
2049,0.0
2,1, 1, 1, 0,17, 0.00,60.00,Holiday
61,10643764.231133666
1669,10643764.231133664
2049,0.0
2,1, 1, 1, 0,18, 0.00,60.00,Holiday
61,12630819.013334924
1669,12630819.013334924
2049,0.0
2,1, 1, 1, 0,19, 0.00,60.00,Holiday
61,12074049.837739341
1669,12074049.837739341
2049,0.0
2,1, 1, 1, 0,20, 0.00,60.00,Holiday
61,13270975.645457823
1669,13270975.645457823
2049,0.0
2,1, 1, 1, 0,21, 0.00,60.00,Holiday
61,14799242.621317592
1669,14799242.621317588
2049,0.0
2,1, 1, 1, 0,22, 0.00,60.00,Holiday
61,13322464.29248011
1669,13322464.29248011
2049,0.0
2,1, 1, 1, 0,23, 0.00,60.00,Holiday
61,15344581.583786326
1669,15344581.583786326
2049,0.0
2,1, 1, 1, 0,24, 0.00,60.00,Holiday
61,16928540.509678937
1669,16928540.509678937
2049,9421.655051536516
2,2, 1, 2, 0, 1, 0.00,60.00,Monday
61,15584029.587838456
1669,15584029.587838456
2049,0.0
2,2, 1, 2, 0, 2, 0.00,60.00,Monday
61,16361212.710835805
1669,16361212.710835805
2049,0.0
2,2, 1, 2, 0, 3, 0.00,60.00,Monday
61,17416683.633173477
1669,17416683.633173473
2049,0.0
2,2, 1, 2, 0, 4, 0.00,60.00,Monday
61,16557063.183108218
1669,16557063.183108218
2049,0.0
2,2, 1, 2, 0, 5, 0.00,60.00,Monday
61,18485013.23974745
1669,18485013.23974745
2049,422490.3537616384
2,2, 1, 2, 0, 6, 0.00,60.00,Monday
61,13033860.705840122
1669,13033860.705840122
2049,15457700.603347573
2,2, 1, 2, 0, 7, 0.00,60.00,Monday
61,19105962.870836087
1669,19105962.870836087
2049,90107760.51395082
2,2, 1, 2, 0, 8, 0.00,60.00,Monday
61,19656220.2397116
1669,19656220.2397116
2049,90107760.51395082
2,2, 1, 2, 0, 9, 0.00,60.00,Monday
61,44694610.74667467
1669,44694610.74667466
2049,78910353.56705283
2,2, 1, 2, 0,10, 0.00,60.00,Monday
61,50982259.92758066
1669,50982259.927580655
2049,45100572.7989172
2,2, 1, 2, 0,11, 0.00,60.00,Monday
61,50757384.03430202
1669,50757384.03430202
2049,22515344.845305055
2,2, 1, 2, 0,12, 0.00,60.00,Monday
61,49786229.85640168
1669,49786229.85640168
2049,11560430.993962279
2,2, 1, 2, 0,13, 0.00,60.00,Monday
61,47221877.760802925
1669,47221877.76080292
2049,16285845.65735371
2,2, 1, 2, 0,14, 0.00,60.00,Monday
61,48087412.677873075
1669,48087412.677873075
2049,4428762.787685039
2,2, 1, 2, 0,15, 0.00,60.00,Monday
61,46622004.00857731
1669,46622004.008577295
2049,3550396.9937222907
2,2, 1, 2, 0,16, 0.00,60.00,Monday
61,50762882.29604064
1669,50762882.29604063
2049,5022215.827406959
2,2, 1, 2, 0,17, 0.00,60.00,Monday
61,52558119.931281164
1669,52558119.93128118
2049,6407308.740839826
2,2, 1, 2, 0,18, 0.00,60.00,Monday
61,46577512.03217312
1669,46577512.03217312
2049,26800440.33743461
2,2, 1, 2, 0,19, 0.00,60.00,Monday
61,40749895.25029345
1669,40749895.25029344
2049,25754548.172779422
2,2, 1, 2, 0,20, 0.00,60.00,Monday
61,10883935.254119202
1669,10883935.254119204
2049,0.0
2,2, 1, 2, 0,21, 0.00,60.00,Monday
61,9899331.820964705
1669,9899331.820964705
2049,0.0
2,2, 1, 2, 0,22, 0.00,60.00,Monday
61,9899331.820964705
1669,9899331.820964705
2049,0.0
2,2, 1, 2, 0,23, 0.00,60.00,Monday
61,9013188.731125657
1669,9013188.731125657
2049,0.0
2,2, 1, 2, 0,24, 0.00,60.00,Monday
61,7265454.451684226
1669,7265454.451684226
2049,0.0
2,3, 1, 3, 0, 1, 0.00,60.00,Tuesday
61,9469604.825749658
1669,9469604.82574966
2049,0.0
2,3, 1, 3, 0, 2, 0.00,60.00,Tuesday
61,9469604.825749658
1669,9469604.82574966
2049,0.0
2,3, 1, 3, 0, 3, 0.00,60.00,Tuesday
61,10588747.604365442
1669,10588747.604365444
2049,1081776.9204620977
2,3, 1, 3, 0, 4, 0.00,60.00,Tuesday
61,11141814.194984484
1669,11141814.194984484
2049,2165615.215254396
2,3, 1, 3, 0, 5, 0.00,60.00,Tuesday
61,12327155.521949476
1669,12327155.521949476
2049,2623930.2734744907
2,3, 1, 3, 0, 6, 0.00,60.00,Tuesday
61,12002337.26398727
1669,12002337.26398727
2049,3118459.6697631674
2,3, 1, 3, 0, 7, 0.00,60.00,Tuesday
61,19105962.870836087
1669,19105962.870836087
2049,87835331.24695536
2,3, 1, 3, 0, 8, 0.00,60.00,Tuesday
61,19593937.667602755
1669,19593937.66760275
2049,90107760.51395082
2,3, 1, 3, 0, 9, 0.00,60.00,Tuesday
61,28830916.34332183
1669,28830916.343321826
2049,78172990.93609633
2,3, 1, 3, 0,10, 0.00,60.00,Tuesday
61,43637567.20026472
1669,43637567.200264715
2049,26898149.41488024
2,3, 1, 3, 0,11, 0.00,60.00,Tuesday
61,46179141.465567395
1669,46179141.465567395
2049,7506393.746848916
2,3, 1, 3, 0,12, 0.00,60.00,Tuesday
61,45142309.53840366
1669,45142309.53840365
2049,3972158.736297415
2,3, 1, 3, 0,13, 0.00,60.00,Tuesday
61,42682274.75565033
1669,42682274.75565032
2049,7401954.055542052
2,3, 1, 3, 0,14, 0.00,60.00,Tuesday
61,41181027.968029164
1669,41181027.96802916
2049,876472.0043673808
2,3, 1, 3, 0,15, 0.00,60.00,Tuesday
61,38382410.79589474
1669,38382410.79589474
2049,507932.80150172143
2,3, 1, 3, 0,16, 0.00,60.00,Tuesday
61,39593416.126349606
1669,39593416.126349606
2049,856334.4629841456
2,3, 1, 3, 0,17, 0.00,60.00,Tuesday
61,43256102.07892444
1669,43256102.07892444
2049,1372541.144160185
2,3, 1, 3, 0,18, 0.00,60.00,Tuesday
61,41436358.583860114
1669,41436358.583860114
2049,14876554.371803578
2,3, 1, 3, 0,19, 0.00,60.00,Tuesday
61,37510816.21722405
1669,37510816.21722405
2049,10465715.892774042
2,3, 1, 3, 0,20, 0.00,60.00,Tuesday
61,10883935.254119202
1669,10883935.254119204
2049,0.0
2,3, 1, 3, 0,21, 0.00,60.00,Tuesday
61,9899331.820964705
1669,9899331.820964705
2049,0.0
2,3, 1, 3, 0,22, 0.00,60.00,Tuesday
61,9899331.820964705
1669,9899331.820964705
2049,0.0
2,3, 1, 3, 0,23, 0.00,60.00,Tuesday
61,9013188.731125657
1669,9013188.731125657
2049,0.0
2,3, 1, 3, 0,24, 0.00,60.00,Tuesday
61,7265454.451684226
1669,7265454.451684226
2049,0.0
2,4, 1, 4, 0, 1, 0.00,60.00,Wednesday
61,9469604.825749658
1669,9469604.82574966
2049,0.0
2,4, 1, 4, 0, 2, 0.00,60.00,Wednesday
61,9469604.825749658
1669,9469604.82574966
2049,0.0
2,4, 1, 4, 0, 3, 0.00,60.00,Wednesday
61,9469604.825749658
1669,9469604.82574966
2049,0.0
2,4, 1, 4, 0, 4, 0.00,60.00,Wednesday
61,9469604.825749658
1669,9469604.82574966
2049,0.0
2,4, 1, 4, 0, 5, 0.00,60.00,Wednesday
61,9469604.825749658
1669,9469604.82574966
2049,0.0
2,4, 1, 4, 0, 6, 0.00,60.00,Wednesday
61,9469604.825749658
1669,9469604.82574966
2049,0.0
2,4, 1, 4, 0, 7, 0.00,60.00,Wednesday
61,38459695.7141853
1669,38459695.7141853
2049,37676328.03924548
2,4, 1, 4, 0, 8, 0.00,60.00,Wednesday
61,40891992.69204964
1669,40891992.69204964
2049,42452815.36757072
2,4, 1, 4, 0, 9, 0.00,60.00,Wednesday
61,46613481.53250198
1669,46613481.532501966
2049,5479908.216477859
2,4, 1, 4, 0,10, 0.00,60.00,Wednesday
61,41173854.20536357
1669,41173854.20536356
2049,72150.18569171662
2,4, 1, 4, 0,11, 0.00,60.00,Wednesday
61,37519424.95460528
1669,37519424.95460528
2049,0.0
2,4, 1, 4, 0,12, 0.00,60.00,Wednesday
61,38484063.457543924
1669,38484063.45754393
2049,0.0
2,4, 1, 4, 0,13, 0.00,60.00,Wednesday
61,36298148.44891228
1669,36298148.44891226
2049,0.0
2,4, 1, 4, 0,14, 0.00,60.00,Wednesday
61,32654725.90655048
1669,32654725.906550474
2049,0.0
2,4, 1, 4, 0,15, 0.00,60.00,Wednesday
61,30015517.9602053
1669,30015517.960205294
2049,0.0
2,4, 1, 4, 0,16, 0.00,60.00,Wednesday
61,31316685.473985106
1669,31316685.4739851
2049,0.0
2,4, 1, 4, 0,17, 0.00,60.00,Wednesday
61,33869251.658886984
1669,33869251.658886984
2049,0.0
2,4, 1, 4, 0,18, 0.00,60.00,Wednesday
61,33317156.997957647
1669,33317156.99795764
2049,0.0
2,4, 1, 4, 0,19, 0.00,60.00,Wednesday
61,29334719.91743105
1669,29334719.91743105
2049,0.0
2,4, 1, 4, 0,20, 0.00,60.00,Wednesday
61,10883935.254119202
1669,10883935.254119204
2049,0.0
2,4, 1, 4, 0,21, 0.00,60.00,Wednesday
61,9899331.820964705
1669,9899331.820964705
2049,0.0
2,4, 1, 4, 0,22, 0.00,60.00,Wednesday
61,9899331.820964705
1669,9899331.820964705
2049,0.0
2,4, 1, 4, 0,23, 0.00,60.00,Wednesday
61,9013188.731125657
1669,9013188.731125657
2049,0.0
2,4, 1, 4, 0,24, 0.00,60.00,Wednesday
61,7265454.451684226
1669,7265454.451684226
2049,0.0
2,5, 1, 5, 0, 1, 0.00,60.00,Thursday
61,9469604.825749658
1669,9469604.82574966
2049,0.0
2,5, 1, 5, 0, 2, 0.00,60.00,Thursday
61,9469604.825749658
1669,9469604.82574966
2049,0.0
2,5, 1, 5, 0, 3, 0.00,60.00,Thursday
61,9469604.825749658
1669,9469604.82574966
2049,0.0
2,5, 1, 5, 0, 4, 0.00,60.00,Thursday
61,8794604.825749658
1669,8794604.82574966
2049,0.0
2,5, 1, 5, 0, 5, 0.00,60.00,Thursday
61,9019604.825749658
1669,9019604.82574966
2049,0.0
2,5, 1, 5, 0, 6, 0.00,60.00,Thursday
61,9469604.825749658
1669,9469604.82574966
2049,0.0
2,5, 1, 5, 0, 7, 0.00,60.00,Thursday
61,31795367.824957345
1669,31795367.824957345
2049,600074.1074263129
2,5, 1, 5, 0, 8, 0.00,60.00,Thursday
61,34275012.39458366
1669,34275012.39458366
2049,0.0
2,5, 1, 5, 0, 9, 0.00,60.00,Thursday
61,36626655.68699905
1669,36626655.68699904
2049,0.0
2,5, 1, 5, 0,10, 0.00,60.00,Thursday
61,33242141.541795954
1669,33242141.54179595
2049,0.0
2,5, 1, 5, 0,11, 0.00,60.00,Thursday
61,28555804.204687387
1669,28555804.204687387
2049,0.0
2,5, 1, 5, 0,12, 0.00,60.00,Thursday
61,29485359.131240644
1669,29485359.13124064
2049,0.0
2,5, 1, 5, 0,13, 0.00,60.00,Thursday
61,26337764.000732873
1669,26337764.00073287
2049,0.0
2,5, 1, 5, 0,14, 0.00,60.00,Thursday
61,28340136.034205593
1669,28340136.034205586
2049,0.0
2,5, 1, 5, 0,15, 0.00,60.00,Thursday
61,27196396.729867686
1669,27196396.729867686
2049,0.0
2,5, 1, 5, 0,16, 0.00,60.00,Thursday
61,28489137.744782995
1669,28489137.74478299
2049,0.0
2,5, 1, 5, 0,17, 0.00,60.00,Thursday
61,30441924.117618207
1669,30441924.117618207
2049,0.0
2,5, 1, 5, 0,18, 0.00,60.00,Thursday
61,26084989.60740024
1669,26084989.60740024
2049,0.0
2,5, 1, 5, 0,19, 0.00,60.00,Thursday
61,23223732.80975345
1669,23223732.809753448
2049,0.0
2,5, 1, 5, 0,20, 0.00,60.00,Thursday
61,10883935.254119202
1669,10883935.254119204
2049,0.0
2,5, 1, 5, 0,21, 0.00,60.00,Thursday
61,9899331.820964705
1669,9899331.820964705
2049,0.0
2,5, 1, 5, 0,22, 0.00,60.00,Thursday
61,9899331.820964705
1669,9899331.820964705
2049,0.0
2,5, 1, 5, 0,23, 0.00,60.00,Thursday
61,9013188.731125657
1669,9013188.731125657
2049,0.0
2,5, 1, 5, 0,24, 0.00,60.00,Thursday
61,7265454.451684226
1669,7265454.451684226
2049,0.0
2,6, 1, 6, 0, 1, 0.00,60.00,Friday
61,9469604.825749658
1669,9469604.82574966
2049,0.0
2,6, 1, 6, 0, 2, 0.00,60.00,Friday
61,9469604.825749658
1669,9469604.82574966
2049,0.0
2,6, 1, 6, 0, 3, 0.00,60.00,Friday
61,8794604.825749658
1669,8794604.82574966
2049,0.0
2,6, 1, 6, 0, 4, 0.00,60.00,Friday
61,8794604.825749658
1669,8794604.82574966
2049,0.0
2,6, 1, 6, 0, 5, 0.00,60.00,Friday
61,9469604.825749658
1669,9469604.82574966
2049,0.0
2,6, 1, 6, 0, 6, 0.00,60.00,Friday
61,9469604.825749658
1669,9469604.82574966
2049,0.0
2,6, 1, 6, 0, 7, 0.00,60.00,Friday
61,27779511.169788383
1669,27779511.169788383
2049,0.0
2,6, 1, 6, 0, 8, 0.00,60.00,Friday
61,31569934.812172428
1669,31569934.812172428
2049,0.0
2,6, 1, 6, 0, 9, 0.00,60.00,Friday
61,31719299.17576246
1669,31719299.175762456
2049,0.0
2,6, 1, 6, 0,10, 0.00,60.00,Friday
61,28900385.586569786
1669,28900385.586569782
2049,0.0
2,6, 1, 6, 0,11, 0.00,60.00,Friday
61,27330570.48244627
1669,27330570.482446257
2049,0.0
2,6, 1, 6, 0,12, 0.00,60.00,Friday
61,28404463.039854877
1669,28404463.039854877
2049,0.0
2,6, 1, 6, 0,13, 0.00,60.00,Friday
61,25404210.959257655
1669,25404210.95925765
2049,0.0
2,6, 1, 6, 0,14, 0.00,60.00,Friday
61,28732050.221477307
1669,28732050.2214773
2049,0.0
2,6, 1, 6, 0,15, 0.00,60.00,Friday
61,27678271.719517097
1669,27678271.719517093
2049,0.0
2,6, 1, 6, 0,16, 0.00,60.00,Friday
61,28845558.620277446
1669,28845558.620277442
2049,0.0
2,6, 1, 6, 0,17, 0.00,60.00,Friday
61,29848311.335667346
1669,29848311.335667346
2049,0.0
2,6, 1, 6, 0,18, 0.00,60.00,Friday
61,25363092.654854175
1669,25363092.654854175
2049,0.0
2,6, 1, 6, 0,19, 0.00,60.00,Friday
61,23778573.164768603
1669,23778573.164768606
2049,0.0
2,6, 1, 6, 0,20, 0.00,60.00,Friday
61,10883935.254119202
1669,10883935.254119204
2049,0.0
2,6, 1, 6, 0,21, 0.00,60.00,Friday
61,9899331.820964705
1669,9899331.820964705
2049,0.0
2,6, 1, 6, 0,22, 0.00,60.00,Friday
61,9899331.820964705
1669,9899331.820964705
2049,0.0
2,6, 1, 6, 0,23, 0.00,60.00,Friday
61,9013188.731125657
1669,9013188.731125657
2049,0.0
2,6, 1, 6, 0,24, 0.00,60.00,Friday
61,7265454.451684226
1669,7265454.451684226
2049,0.0
2,7, 1, 7, 0, 1, 0.00,60.00,Saturday
61,6404338.596677196
1669,6404338.596677196
2049,0.0
2,7, 1, 7, 0, 2, 0.00,60.00,Saturday
61,6404338.596677196
1669,6404338.596677196
2049,0.0
2,7, 1, 7, 0, 3, 0.00,60.00,Saturday
61,6404338.596677196
1669,6404338.596677196
2049,0.0
2,7, 1, 7, 0, 4, 0.00,60.00,Saturday
61,6404338.596677196
1669,6404338.596677196
2049,0.0
2,7, 1, 7, 0, 5, 0.00,60.00,Saturday
61,6404338.596677196
1669,6404338.596677196
2049,0.0
2,7, 1, 7, 0, 6, 0.00,60.00,Saturday
61,6404338.596677196
1669,6404338.596677196
2049,0.0
2,7, 1, 7, 0, 7, 0.00,60.00,Saturday
61,7595938.596677196
1669,7595938.596677196
2049,0.0
2,7, 1, 7, 0, 8, 0.00,60.00,Saturday
61,5945428.596677196
1669,5945428.596677196
2049,0.0
2,7, 1, 7, 0, 9, 0.00,60.00,Saturday
61,5395258.596677196
1669,5395258.596677196
2049,0.0
2,7, 1, 7, 0,10, 0.00,60.00,Saturday
61,4720258.596677196
1669,4720258.596677196
2049,0.0
2,7, 1, 7, 0,11, 0.00,60.00,Saturday
61,4495258.596677196
1669,4495258.596677196
2049,0.0
2,7, 1, 7, 0,12, 0.00,60.00,Saturday
61,4495258.596677196
1669,4495258.596677196
2049,0.0
2,7, 1, 7, 0,13, 0.00,60.00,Saturday
61,4495258.596677196
1669,4495258.596677196
2049,0.0
2,7, 1, 7, 0,14, 0.00,60.00,Saturday
61,4495258.596677196
1669,4495258.596677196
2049,0.0
2,7, 1, 7, 0,15, 0.00,60.00,Saturday
61,4495258.596677196
1669,4495258.596677196
2049,0.0
2,7, 1, 7, 0,16, 0.00,60.00,Saturday
61,4495258.596677196
1669,4495258.596677196
2049,0.0
2,7, 1, 7, 0,17, 0.00,60.00,Saturday
61,5270428.596677196
1669,5270428.596677196
2049,0.0
2,7, 1, 7, 0,18, 0.00,60.00,Saturday
61,7595938.596677196
1669,7595938.596677196
2049,0.0
2,7, 1, 7, 0,19, 0.00,60.00,Saturday
61,7595938.596677196
1669,7595938.596677196
2049,0.0
2,7, 1, 7, 0,20, 0.00,60.00,Saturday
61,6794038.596677196
1669,6794038.596677196
2049,0.0
2,7, 1, 7, 0,21, 0.00,60.00,Saturday
61,6794038.596677196
1669,6794038.596677196
2049,0.0
2,7, 1, 7, 0,22, 0.00,60.00,Saturday
61,6794038.596677196
1669,6794038.596677196
2049,0.0
2,7, 1, 7, 0,23, 0.00,60.00,Saturday
61,6794038.596677196
1669,6794038.596677196
2049,0.0
2,7, 1, 7, 0,24, 0.00,60.00,Saturday
61,6794038.596677196
1669,6794038.596677196
2049,0.0
2,8, 1, 8, 0, 1, 0.00,60.00,Sunday
61,6404338.596677196
1669,6404338.596677196
2049,0.0
2,8, 1, 8, 0, 2, 0.00,60.00,Sunday
61,6404338.596677196
1669,6404338.596677196
2049,0.0
2,8, 1, 8, 0, 3, 0.00,60.00,Sunday
61,6404338.596677196
1669,6404338.596677196
2049,0.0
2,8, 1, 8, 0, 4, 0.00,60.00,Sunday
61,6404338.596677196
1669,6404338.596677196
2049,0.0
2,8, 1, 8, 0, 5, 0.00,60.00,Sunday
61,6404338.596677196
1669,6404338.596677196
2049,0.0
2,8, 1, 8, 0, 6, 0.00,60.00,Sunday
61,6404338.596677196
1669,6404338.596677196
2049,0.0
2,8, 1, 8, 0, 7, 0.00,60.00,Sunday
61,7595938.596677196
1669,7595938.596677196
2049,0.0
2,8, 1, 8, 0, 8, 0.00,60.00,Sunday
61,5945428.596677196
1669,5945428.596677196
2049,0.0
2,8, 1, 8, 0, 9, 0.00,60.00,Sunday
61,5395258.596677196
1669,5395258.596677196
2049,0.0
2,8, 1, 8, 0,10, 0.00,60.00,Sunday
61,5395258.596677196
1669,5395258.596677196
2049,0.0
2,8, 1, 8, 0,11, 0.00,60.00,Sunday
61,5395258.596677196
1669,5395258.596677196
2049,0.0
2,8, 1, 8, 0,12, 0.00,60.00,Sunday
61,5395258.596677196
1669,5395258.596677196
2049,0.0
2,8, 1, 8, 0,13, 0.00,60.00,Sunday
61,5395258.596677196
1669,5395258.596677196
2049,0.0
2,8, 1, 8, 0,14, 0.00,60.00,Sunday
61,5395258.596677196
1669,5395258.596677196
2049,0.0
2,8, 1, 8, 0,15, 0.00,60.00,Sunday
61,5395258.596677196
1669,5395258.596677196
2049,0.0
2,8, 1, 8, 0,16, 0.00,60.00,Sunday
61,5395258.596677196
1669,5395258.596677196
2049,0.0
2,8, 1, 8, 0,17, 0.00,60.00,Sunday
61,5945428.596677196
1669,5945428.596677196
2049,0.0
2,8, 1, 8, 0,18, 0.00,60.00,Sunday
61,7595938.596677196
1669,7595938.596677196
2049,0.0
2,8, 1, 8, 0,19, 0.00,60.00,Sunday
61,7595938.596677196
1669,7595938.596677196
2049,0.0
2,8, 1, 8, 0,20, 0.00,60.00,Sunday
61,6794038.596677196
1669,6794038.596677196
2049,0.0
2,8, 1, 8, 0,21, 0.00,60.00,Sunday
61,6794038.596677196
1669,6794038.596677196
2049,0.0
2,8, 1, 8, 0,22, 0.00,60.00,Sunday
61,6794038.596677196
1669,6794038.596677196
2049,0.0
2,8, 1, 8, 0,23, 0.00,60.00,Sunday
61,6794038.596677196
1669,6794038.596677196
2049,0.0
2,8, 1, 8, 0,24, 0.00,60.00,Sunday
61,6794038.596677196
1669,6794038.596677196
2049,0.0
2,9, 1, 9, 0, 1, 0.00,60.00,Monday
61,9469604.825749658
1669,9469604.82574966
2049,0.0
2,9, 1, 9, 0, 2, 0.00,60.00,Monday
61,9469604.825749658
1669,9469604.82574966
2049,0.0
2,9, 1, 9, 0, 3, 0.00,60.00,Monday
61,9469604.825749658
1669,9469604.82574966
2049,0.0
2,9, 1, 9, 0, 4, 0.00,60.00,Monday
61,9469604.825749658
1669,9469604.82574966
2049,0.0
2,9, 1, 9, 0, 5, 0.00,60.00,Monday
61,9469604.825749658
1669,9469604.82574966
2049,0.0
2,9, 1, 9, 0, 6, 0.00,60.00,Monday
61,9469604.825749658
1669,9469604.82574966
2049,0.0
2,9, 1, 9, 0, 7, 0.00,60.00,Monday
61,34841894.37676818
1669,34841894.37676818
2049,14938804.476014696
2,9, 1, 9, 0, 8, 0.00,60.00,Monday
61,37838275.18474374
1669,37838275.18474374
2049,17153460.78082636
2,9, 1, 9, 0, 9, 0.00,60.00,Monday
61,37168248.05466381
1669,37168248.05466381
2049,772345.0015002845
2,9, 1, 9, 0,10, 0.00,60.00,Monday
61,33354624.59573893
1669,33354624.595738936
2049,0.0
2,9, 1, 9, 0,11, 0.00,60.00,Monday
61,30104755.539239585
1669,30104755.53923958
2049,0.0
2,9, 1, 9, 0,12, 0.00,60.00,Monday
61,30618168.88873137
1669,30618168.88873137
2049,0.0
2,9, 1, 9, 0,13, 0.00,60.00,Monday
61,27631855.252718884
1669,27631855.252718877
2049,0.0
2,9, 1, 9, 0,14, 0.00,60.00,Monday
61,29885964.310944095
1669,29885964.310944088
2049,0.0
2,9, 1, 9, 0,15, 0.00,60.00,Monday
61,28632232.486881904
1669,28632232.486881904
2049,0.0
2,9, 1, 9, 0,16, 0.00,60.00,Monday
61,29615978.133231506
1669,29615978.133231506
2049,0.0
2,9, 1, 9, 0,17, 0.00,60.00,Monday
61,31169303.48218502
1669,31169303.482185017
2049,0.0
2,9, 1, 9, 0,18, 0.00,60.00,Monday
61,27184634.236624263
1669,27184634.236624256
2049,0.0
2,9, 1, 9, 0,19, 0.00,60.00,Monday
61,23987873.834512487
1669,23987873.834512487
2049,0.0
2,9, 1, 9, 0,20, 0.00,60.00,Monday
61,10883935.254119202
1669,10883935.254119204
2049,0.0
2,9, 1, 9, 0,21, 0.00,60.00,Monday
61,9899331.820964705
1669,9899331.820964705
2049,0.0
2,9, 1, 9, 0,22, 0.00,60.00,Monday
61,9899331.820964705
1669,9899331.820964705
2049,0.0
2,9, 1, 9, 0,23, 0.00,60.00,Monday
61,9013188.731125657
1669,9013188.731125657
2049,0.0
2,9, 1, 9, 0,24, 0.00,60.00,Monday
61,7265454.451684226
1669,7265454.451684226
2049,0.0
2,10, 1,10, 0, 1, 0.00,60.00,Tuesday
61,9469604.825749658
1669,9469604.82574966
2049,0.0
2,10, 1,10, 0, 2, 0.00,60.00,Tuesday
61,9244604.825749658
1669,9244604.82574966
2049,0.0
2,10, 1,10, 0, 3, 0.00,60.00,Tuesday
61,8569604.825749658
1669,8569604.82574966
2049,0.0
2,10, 1,10, 0, 4, 0.00,60.00,Tuesday
61,9469604.825749658
1669,9469604.82574966
2049,0.0
2,10, 1,10, 0, 5, 0.00,60.00,Tuesday
61,9019604.825749658
1669,9019604.82574966
2049,0.0
2,10, 1,10, 0, 6, 0.00,60.00,Tuesday
61,8569604.825749658
1669,8569604.82574966
2049,0.0
2,10, 1,10, 0, 7, 0.00,60.00,Tuesday
61,26264902.390549257
1669,26264902.390549257
2049,0.0
2,10, 1,10, 0, 8, 0.00,60.00,Tuesday
61,27495721.539091285
1669,27495721.53909129
2049,0.0
2,10, 1,10, 0, 9, 0.00,60.00,Tuesday
61,30014847.06770802
1669,30014847.067708015
2049,0.0
2,10, 1,10, 0,10, 0.00,60.00,Tuesday
61,28844666.206211187
1669,28844666.20621118
2049,0.0
2,10, 1,10, 0,11, 0.00,60.00,Tuesday
61,27794594.89908169
1669,27794594.899081685
2049,0.0
2,10, 1,10, 0,12, 0.00,60.00,Tuesday
61,28980954.980892632
1669,28980954.980892632
2049,0.0
2,10, 1,10, 0,13, 0.00,60.00,Tuesday
61,25818655.87636648
1669,25818655.876366477
2049,0.0
2,10, 1,10, 0,14, 0.00,60.00,Tuesday
61,29235916.454683773
1669,29235916.45468377
2049,0.0
2,10, 1,10, 0,15, 0.00,60.00,Tuesday
61,28914129.64379711
1669,28914129.643797107
2049,0.0
2,10, 1,10, 0,16, 0.00,60.00,Tuesday
61,30093711.745955847
1669,30093711.74595584
2049,0.0
2,10, 1,10, 0,17, 0.00,60.00,Tuesday
61,31023436.07975524
1669,31023436.079755243
2049,0.0
2,10, 1,10, 0,18, 0.00,60.00,Tuesday
61,25536938.9625969
1669,25536938.962596897
2049,0.0
2,10, 1,10, 0,19, 0.00,60.00,Tuesday
61,22052027.497494027
1669,22052027.497494023
2049,0.0
2,10, 1,10, 0,20, 0.00,60.00,Tuesday
61,10883935.254119202
1669,10883935.254119204
2049,0.0
2,10, 1,10, 0,21, 0.00,60.00,Tuesday
61,9899331.820964705
1669,9899331.820964705
2049,0.0
2,10, 1,10, 0,22, 0.00,60.00,Tuesday
61,9899331.820964705
1669,9899331.820964705
2049,0.0
2,10, 1,10, 0,23, 0.00,60.00,Tuesday
61,9013188.731125657
1669,9013188.731125657
2049,0.0
2,10, 1,10, 0,24, 0.00,60.00,Tuesday
61,6365454.451684226
1669,6365454.451684226
2049,0.0
2,11, 1,11, 0, 1, 0.00,60.00,Wednesday
61,8794604.825749658
1669,8794604.82574966
2049,0.0
2,11, 1,11, 0, 2, 0.00,60.00,Wednesday
61,9469604.825749658
1669,9469604.82574966
2049,0.0
2,11, 1,11, 0, 3, 0.00,60.00,Wednesday
61,9019604.825749658
1669,9019604.82574966
2049,0.0
2,11, 1,11, 0, 4, 0.00,60.00,Wednesday
61,9019604.825749658
1669,9019604.82574966
2049,0.0
2,11, 1,11, 0, 5, 0.00,60.00,Wednesday
61,9469604.825749658
1669,9469604.82574966
2049,0.0
2,11, 1,11, 0, 6, 0.00,60.00,Wednesday
61,9469604.825749658
1669,9469604.82574966
2049,0.0
2,11, 1,11, 0, 7, 0.00,60.00,Wednesday
61,23423101.263392504
1669,23423101.263392504
2049,0.0
2,11, 1,11, 0, 8, 0.00,60.00,Wednesday
61,25764237.463953525
1669,25764237.463953525
2049,0.0
2,11, 1,11, 0, 9, 0.00,60.00,Wednesday
61,29368078.657611147
1669,29368078.65761114
2049,0.0
2,11, 1,11, 0,10, 0.00,60.00,Wednesday
61,28076003.747751877
1669,28076003.74775187
2049,0.0
2,11, 1,11, 0,11, 0.00,60.00,Wednesday
61,26648201.93663547
1669,26648201.936635464
2049,0.0
2,11, 1,11, 0,12, 0.00,60.00,Wednesday
61,27841148.097740557
1669,27841148.097740553
2049,0.0
2,11, 1,11, 0,13, 0.00,60.00,Wednesday
61,24975826.275768757
1669,24975826.275768757
2049,0.0
2,11, 1,11, 0,14, 0.00,60.00,Wednesday
61,27981727.665564172
1669,27981727.665564165
2049,0.0
2,11, 1,11, 0,15, 0.00,60.00,Wednesday
61,27375831.419880465
1669,27375831.41988046
2049,0.0
2,11, 1,11, 0,16, 0.00,60.00,Wednesday
61,28698127.237685345
1669,28698127.237685338
2049,0.0
2,11, 1,11, 0,17, 0.00,60.00,Wednesday
61,29690266.627054524
1669,29690266.62705452
2049,0.0
2,11, 1,11, 0,18, 0.00,60.00,Wednesday
61,22632348.08936446
1669,22632348.089364458
2049,0.0
2,11, 1,11, 0,19, 0.00,60.00,Wednesday
61,17946242.706240352
1669,17946242.70624035
2049,0.0
2,11, 1,11, 0,20, 0.00,60.00,Wednesday
61,9983935.254119202
1669,9983935.254119204
2049,0.0
2,11, 1,11, 0,21, 0.00,60.00,Wednesday
61,8999331.820964705
1669,8999331.820964705
2049,0.0
2,11, 1,11, 0,22, 0.00,60.00,Wednesday
61,8999331.820964705
1669,8999331.820964705
2049,0.0
2,11, 1,11, 0,23, 0.00,60.00,Wednesday
61,8113188.731125657
1669,8113188.731125657
2049,0.0
2,11, 1,11, 0,24, 0.00,60.00,Wednesday
61,6365454.451684226
1669,6365454.451684226
2049,0.0
2,12, 1,12, 0, 1, 0.00,60.00,Thursday
61,9019604.825749658
1669,9019604.82574966
2049,0.0
2,12, 1,12, 0, 2, 0.00,60.00,Thursday
61,9469604.825749658
1669,9469604.82574966
2049,0.0
2,12, 1,12, 0, 3, 0.00,60.00,Thursday
61,9469604.825749658
1669,9469604.82574966
2049,0.0
2,12, 1,12, 0, 4, 0.00,60.00,Thursday
61,9469604.825749658
1669,9469604.82574966
2049,0.0
2,12, 1,12, 0, 5, 0.00,60.00,Thursday
61,9469604.825749658
1669,9469604.82574966
2049,0.0
2,12, 1,12, 0, 6, 0.00,60.00,Thursday
61,9469604.825749658
1669,9469604.82574966
2049,0.0
2,12, 1,12, 0, 7, 0.00,60.00,Thursday
61,22807269.20635672
1669,22807269.20635672
2049,0.0
2,12, 1,12, 0, 8, 0.00,60.00,Thursday
61,28033780.20631393
1669,28033780.20631393
2049,0.0
2,12, 1,12, 0, 9, 0.00,60.00,Thursday
61,30038167.739441905
1669,30038167.7394419
2049,0.0
2,12, 1,12, 0,10, 0.00,60.00,Thursday
61,28859255.386564456
1669,28859255.386564456
2049,0.0
2,12, 1,12, 0,11, 0.00,60.00,Thursday
61,27412714.09623181
1669,27412714.09623181
2049,0.0
2,12, 1,12, 0,12, 0.00,60.00,Thursday
61,28077726.647533625
1669,28077726.647533625
2049,0.0
2,12, 1,12, 0,13, 0.00,60.00,Thursday
61,25541828.148071982
1669,25541828.148071982
2049,0.0
2,12, 1,12, 0,14, 0.00,60.00,Thursday
61,27626474.105155244
1669,27626474.10515524
2049,0.0
2,12, 1,12, 0,15, 0.00,60.00,Thursday
61,26716313.742775574
1669,26716313.742775574
2049,0.0
2,12, 1,12, 0,16, 0.00,60.00,Thursday
61,28152842.938565582
1669,28152842.93856558
2049,0.0
2,12, 1,12, 0,17, 0.00,60.00,Thursday
61,30188861.147286966
1669,30188861.14728696
2049,0.0
2,12, 1,12, 0,18, 0.00,60.00,Thursday
61,26888267.30478367
1669,26888267.304783665
2049,0.0
2,12, 1,12, 0,19, 0.00,60.00,Thursday
61,23664925.53078261
1669,23664925.530782603
2049,0.0
2,12, 1,12, 0,20, 0.00,60.00,Thursday
61,10883935.254119202
1669,10883935.254119204
2049,0.0
2,12, 1,12, 0,21, 0.00,60.00,Thursday
61,9899331.820964705
1669,9899331.820964705
2049,0.0
2,12, 1,12, 0,22, 0.00,60.00,Thursday
61,9899331.820964705
1669,9899331.820964705
2049,0.0
2,12, 1,12, 0,23, 0.00,60.00,Thursday
61,9013188.731125657
1669,9013188.731125657
2049,0.0
2,12, 1,12, 0,24, 0.00,60.00,Thursday
61,7265454.451684226
1669,7265454.451684226
2049,0.0
2,13, 1,13, 0, 1, 0.00,60.00,Friday
61,9469604.825749658
1669,9469604.82574966
2049,0.0
2,13, 1,13, 0, 2, 0.00,60.00,Friday
61,9469604.825749658
1669,9469604.82574966
2049,0.0
2,13, 1,13, 0, 3, 0.00,60.00,Friday
61,9469604.825749658
1669,9469604.82574966
2049,0.0
2,13, 1,13, 0, 4, 0.00,60.00,Friday
61,9469604.825749658
1669,9469604.82574966
2049,0.0
2,13, 1,13, 0, 5, 0.00,60.00,Friday
61,9469604.825749658
1669,9469604.82574966
2049,0.0
2,13, 1,13, 0, 6, 0.00,60.00,Friday
61,9469604.825749658
1669,9469604.82574966
2049,0.0
2,13, 1,13, 0, 7, 0.00,60.00,Friday
61,27918240.060987268
1669,27918240.060987264
2049,10376.309173106063
2,13, 1,13, 0, 8, 0.00,60.00,Friday
61,32643948.232705846
1669,32643948.23270584
2049,646878.5867521814
2,13, 1,13, 0, 9, 0.00,60.00,Friday
61,31979986.125505768
1669,31979986.125505768
2049,0.0
2,13, 1,13, 0,10, 0.00,60.00,Friday
61,32041072.860033147
1669,32041072.860033147
2049,0.0
2,13, 1,13, 0,11, 0.00,60.00,Friday
61,29685004.258284457
1669,29685004.258284457
2049,0.0
2,13, 1,13, 0,12, 0.00,60.00,Friday
61,29414828.48501927
1669,29414828.485019267
2049,0.0
2,13, 1,13, 0,13, 0.00,60.00,Friday
61,28336763.890797127
1669,28336763.890797127
2049,0.0
2,13, 1,13, 0,14, 0.00,60.00,Friday
61,29396632.71219114
1669,29396632.712191135
2049,0.0
2,13, 1,13, 0,15, 0.00,60.00,Friday
61,28164207.664638143
1669,28164207.664638143
2049,0.0
2,13, 1,13, 0,16, 0.00,60.00,Friday
61,29214986.580528222
1669,29214986.580528222
2049,0.0
2,13, 1,13, 0,17, 0.00,60.00,Friday
61,30616425.814305354
1669,30616425.81430535
2049,0.0
2,13, 1,13, 0,18, 0.00,60.00,Friday
61,29710619.668309383
1669,29710619.668309383
2049,0.0
2,13, 1,13, 0,19, 0.00,60.00,Friday
61,25972645.002914146
1669,25972645.002914142
2049,0.0
2,13, 1,13, 0,20, 0.00,60.00,Friday
61,10883935.254119202
1669,10883935.254119204
2049,0.0
2,13, 1,13, 0,21, 0.00,60.00,Friday
61,9899331.820964705
1669,9899331.820964705
2049,0.0
2,13, 1,13, 0,22, 0.00,60.00,Friday
61,9899331.820964705
1669,9899331.820964705
2049,0.0
2,13, 1,13, 0,23, 0.00,60.00,Friday
61,9013188.731125657
1669,9013188.731125657
2049,0.0
2,13, 1,13, 0,24, 0.00,60.00,Friday
61,7265454.451684226
1669,7265454.451684226
2049,0.0
2,14, 1,14, 0, 1, 0.00,60.00,Saturday
61,6404338.596677196
1669,6404338.596677196
2049,0.0
2,14, 1,14, 0, 2, 0.00,60.00,Saturday
61,6404338.596677196
1669,6404338.596677196
2049,0.0
2,14, 1,14, 0, 3, 0.00,60.00,Saturday
61,6404338.596677196
1669,6404338.596677196
2049,0.0
2,14, 1,14, 0, 4, 0.00,60.00,Saturday
61,6404338.596677196
1669,6404338.596677196
2049,0.0
2,14, 1,14, 0, 5, 0.00,60.00,Saturday
61,6404338.596677196
1669,6404338.596677196
2049,0.0
2,14, 1,14, 0, 6, 0.00,60.00,Saturday
61,6404338.596677196