Program Version,EnergyPlus, Version 22.2.0-56f3a890b4, YMD=2022.08.31 10:31
1,5,Environment Title[],Latitude[deg],Longitude[deg],Time Zone[],Elevation[m]
2,8,Day of Simulation[],Month[],Day of Month[],DST Indicator[1=yes 0=no],Hour[],StartMinute[],EndMinute[],DayType
3,5,Cumulative Day of Simulation[],Month[],Day of Month[],DST Indicator[1=yes 0=no],DayType  ! When Daily Meters Requested
4,2,Cumulative Days of Simulation[],Month[]  ! When Monthly Meters Requested
5,1,Cumulative Days of Simulation[] ! When Run Period Meters Requested
6,1,Calendar Year of Simulation[] ! When Annual Meters Requested
61,1,Electricity:Facility [J] !Hourly
1669,1,ElectricityNet:Facility [J] !Hourly
2049,1,NaturalGas:Facility [J] !Hourly
End of Data Dictionary
1,RUNPERIOD 1,  39.74,-105.18,  -7.00,1829.00
2,1, 1, 1, 0, 1, 0.00,60.00,Holiday
61,13070283.162390996
1669,13070283.162390996
2049,0.0
2,1, 1, 1, 0, 2, 0.00,60.00,Holiday
61,14254204.989725951
1669,14254204.98972595
2049,0.0
2,1, 1, 1, 0, 3, 0.00,60.00,Holiday
61,12687637.654832833
1669,12687637.654832833
2049,0.0
2,1, 1, 1, 0, 4, 0.00,60.00,Holiday
61,12203711.372219397
1669,12203711.372219399
2049,0.0
2,1, 1, 1, 0, 5, 0.00,60.00,Holiday
61,14615846.002432076
1669,14615846.002432073
2049,0.0
2,1, 1, 1, 0, 6, 0.00,60.00,Holiday
61,12723536.86188962
1669,12723536.861889623
2049,0.0
2,1, 1, 1, 0, 7, 0.00,60.00,Holiday
61,13826467.070551082
1669,13826467.070551082
2049,0.0
2,1, 1, 1, 0, 8, 0.00,60.00,Holiday
61,13865922.809996182
1669,13865922.80999618
2049,0.0
2,1, 1, 1, 0, 9, 0.00,60.00,Holiday
61,8791903.217792101
1669,8791903.217792101
2049,0.0
2,1, 1, 1, 0,10, 0.00,60.00,Holiday
61,8446868.824331539
1669,8446868.824331539
2049,0.0
2,1, 1, 1, 0,11, 0.00,60.00,Holiday
61,7703592.187407621
1669,7703592.18740762
2049,0.0
2,1, 1, 1, 0,12, 0.00,60.00,Holiday
61,7909753.097053673
1669,7909753.097053672
2049,0.0
2,1, 1, 1, 0,13, 0.00,60.00,Holiday
61,6838101.434044973
1669,6838101.434044973
2049,0.0
2,1, 1, 1, 0,14, 0.00,60.00,Holiday
61,7656117.496287996
1669,7656117.496287994
2049,0.0
2,1, 1, 1, 0,15, 0.00,60.00,Holiday
61,8700719.47518234
1669,8700719.475182338
2049,0.0
2,1, 1, 1, 0,16, 0.00,60.00,Holiday
61,8339678.315175967
1669,8339678.315175969
2049,0.0
2,1, 1, 1, 0,17, 0.00,60.00,Holiday
61,10641313.442124004
1669,10641313.442124004
2049,0.0
2,1, 1, 1, 0,18, 0.00,60.00,Holiday
61,12627727.727544846
1669,12627727.727544844
2049,0.0
2,1, 1, 1, 0,19, 0.00,60.00,Holiday
61,12071685.05905045
1669,12071685.059050448
2049,0.0
2,1, 1, 1, 0,20, 0.00,60.00,Holiday
61,13268499.799320625
1669,13268499.799320625
2049,0.0
2,1, 1, 1, 0,21, 0.00,60.00,Holiday
61,14795828.028878944
1669,14795828.028878942
2049,0.0
2,1, 1, 1, 0,22, 0.00,60.00,Holiday
61,13319417.278415123
1669,13319417.278415123
2049,0.0
2,1, 1, 1, 0,23, 0.00,60.00,Holiday
61,15341565.604352543
1669,15341565.604352541
2049,0.0
2,1, 1, 1, 0,24, 0.00,60.00,Holiday
61,16926493.317154247
1669,16926493.317154247
2049,7444.485468253232
2,2, 1, 2, 0, 1, 0.00,60.00,Monday
61,15580899.396457393
1669,15580899.396457393
2049,0.0
2,2, 1, 2, 0, 2, 0.00,60.00,Monday
61,16358039.443958912
1669,16358039.443958912
2049,0.0
2,2, 1, 2, 0, 3, 0.00,60.00,Monday
61,17412697.258046433
1669,17412697.258046433
2049,0.0
2,2, 1, 2, 0, 4, 0.00,60.00,Monday
61,16553892.40799862
1669,16553892.40799862
2049,0.0
2,2, 1, 2, 0, 5, 0.00,60.00,Monday
61,18483559.989241797
1669,18483559.989241797
2049,418956.31967414013
2,2, 1, 2, 0, 6, 0.00,60.00,Monday
61,13035086.051193617
1669,13035086.051193615
2049,15448382.170824757
2,2, 1, 2, 0, 7, 0.00,60.00,Monday
61,19107690.076178685
1669,19107690.076178685
2049,90107078.06760614
2,2, 1, 2, 0, 8, 0.00,60.00,Monday
61,19657947.445054207
1669,19657947.445054207
2049,90107078.06760614
2,2, 1, 2, 0, 9, 0.00,60.00,Monday
61,44700957.23868215
1669,44700957.23868214
2049,78887610.63164324
2,2, 1, 2, 0,10, 0.00,60.00,Monday
61,50990335.86269088
1669,50990335.86269087
2049,45066421.72886464
2,2, 1, 2, 0,11, 0.00,60.00,Monday
61,50764498.101302594
1669,50764498.10130259
2049,22486135.67086568
2,2, 1, 2, 0,12, 0.00,60.00,Monday
61,49792338.650109015
1669,49792338.65010901
2049,11535203.507155545
2,2, 1, 2, 0,13, 0.00,60.00,Monday
61,47224483.01286163
1669,47224483.012861624
2049,16268511.016551988
2,2, 1, 2, 0,14, 0.00,60.00,Monday
61,48089974.22249727
1669,48089974.22249726
2049,4415154.787762091
2,2, 1, 2, 0,15, 0.00,60.00,Monday
61,46621219.7374464
1669,46621219.7374464
2049,3543232.941874946
2,2, 1, 2, 0,16, 0.00,60.00,Monday
61,50765862.05630119
1669,50765862.05630119
2049,5008459.158990588
2,2, 1, 2, 0,17, 0.00,60.00,Monday
61,52562290.95637962
1669,52562290.95637962
2049,6393531.637981608
2,2, 1, 2, 0,18, 0.00,60.00,Monday
61,46583968.00734763
1669,46583968.00734763
2049,26779002.46200572
2,2, 1, 2, 0,19, 0.00,60.00,Monday
61,40758287.82331335
1669,40758287.82331334
2049,25728351.85504487
2,2, 1, 2, 0,20, 0.00,60.00,Monday
61,10883935.25418148
1669,10883935.25418148
2049,0.0
2,2, 1, 2, 0,21, 0.00,60.00,Monday
61,9899331.821026983
1669,9899331.82102698
2049,0.0
2,2, 1, 2, 0,22, 0.00,60.00,Monday
61,9899331.821026983
1669,9899331.82102698
2049,0.0
2,2, 1, 2, 0,23, 0.00,60.00,Monday
61,9013188.731125657
1669,9013188.731125657
2049,0.0
2,2, 1, 2, 0,24, 0.00,60.00,Monday
61,7265454.451684226
1669,7265454.451684226
2049,0.0
2,3, 1, 3, 0, 1, 0.00,60.00,Tuesday
61,9469604.825749658
1669,9469604.82574966
2049,0.0
2,3, 1, 3, 0, 2, 0.00,60.00,Tuesday
61,9469604.825749658
1669,9469604.82574966
2049,0.0
2,3, 1, 3, 0, 3, 0.00,60.00,Tuesday
61,10588770.068255283
1669,10588770.068255283
2049,1078034.6956315872
2,3, 1, 3, 0, 4, 0.00,60.00,Tuesday
61,11141986.326023182
1669,11141986.326023184
2049,2160597.077496368
2,3, 1, 3, 0, 5, 0.00,60.00,Tuesday
61,12326561.673958432
1669,12326561.673958434
2049,2617180.6854254333
2,3, 1, 3, 0, 6, 0.00,60.00,Tuesday
61,12002346.271664819
1669,12002346.271664819
2049,3111078.436602867
2,3, 1, 3, 0, 7, 0.00,60.00,Tuesday
61,19107690.076178685
1669,19107690.076178685
2049,87831882.09014022
2,3, 1, 3, 0, 8, 0.00,60.00,Tuesday
61,19595664.872945357
1669,19595664.872945357
2049,90107078.06760614
2,3, 1, 3, 0, 9, 0.00,60.00,Tuesday
61,28832643.54869557
1669,28832643.54869557
2049,78155390.58903491
2,3, 1, 3, 0,10, 0.00,60.00,Tuesday
61,43641791.90052146
1669,43641791.90052146
2049,26875429.708774976
2,3, 1, 3, 0,11, 0.00,60.00,Tuesday
61,46179156.54760674
1669,46179156.547606744
2049,7493000.567394219
2,3, 1, 3, 0,12, 0.00,60.00,Tuesday
61,45142183.922434226
1669,45142183.922434226
2049,3964682.9035422187
2,3, 1, 3, 0,13, 0.00,60.00,Tuesday
61,42683816.58599098
1669,42683816.58599098
2049,7386709.70848425
2,3, 1, 3, 0,14, 0.00,60.00,Tuesday
61,41180870.16830717
1669,41180870.16830717
2049,869014.5016193106
2,3, 1, 3, 0,15, 0.00,60.00,Tuesday
61,38381101.78450877
1669,38381101.78450877
2049,500646.848517274
2,3, 1, 3, 0,16, 0.00,60.00,Tuesday
61,39593313.046856485
1669,39593313.04685648
2049,849309.7437024056
2,3, 1, 3, 0,17, 0.00,60.00,Tuesday
61,43255916.68153906
1669,43255916.68153906
2049,1365647.6642746632
2,3, 1, 3, 0,18, 0.00,60.00,Tuesday
61,41439293.2518125
1669,41439293.251812495
2049,14862364.29241743
2,3, 1, 3, 0,19, 0.00,60.00,Tuesday
61,37515788.17707465
1669,37515788.17707463
2049,10446100.198094882
2,3, 1, 3, 0,20, 0.00,60.00,Tuesday
61,10883935.25418148
1669,10883935.25418148
2049,0.0
2,3, 1, 3, 0,21, 0.00,60.00,Tuesday
61,9899331.821026983
1669,9899331.82102698
2049,0.0
2,3, 1, 3, 0,22, 0.00,60.00,Tuesday
61,9899331.821026983
1669,9899331.82102698
2049,0.0
2,3, 1, 3, 0,23, 0.00,60.00,Tuesday
61,9013188.731125657
1669,9013188.731125657
2049,0.0
2,3, 1, 3, 0,24, 0.00,60.00,Tuesday
61,7265454.451684226
1669,7265454.451684226
2049,0.0
2,4, 1, 4, 0, 1, 0.00,60.00,Wednesday
61,9469604.825749658
1669,9469604.82574966
2049,0.0
2,4, 1, 4, 0, 2, 0.00,60.00,Wednesday
61,9469604.825749658
1669,9469604.82574966
2049,0.0
2,4, 1, 4, 0, 3, 0.00,60.00,Wednesday
61,9469604.825749658
1669,9469604.82574966
2049,0.0
2,4, 1, 4, 0, 4, 0.00,60.00,Wednesday
61,9469604.825749658
1669,9469604.82574966
2049,0.0
2,4, 1, 4, 0, 5, 0.00,60.00,Wednesday
61,9469604.825749658
1669,9469604.82574966
2049,0.0
2,4, 1, 4, 0, 6, 0.00,60.00,Wednesday
61,9469604.825749658
1669,9469604.82574966
2049,0.0
2,4, 1, 4, 0, 7, 0.00,60.00,Wednesday
61,38466283.807021245
1669,38466283.80702125
2049,37643496.55965777
2,4, 1, 4, 0, 8, 0.00,60.00,Wednesday
61,40899886.183191195
1669,40899886.18319118
2049,42423208.41430418
2,4, 1, 4, 0, 9, 0.00,60.00,Wednesday
61,46615738.07365438
1669,46615738.07365438
2049,5461232.909019788
2,4, 1, 4, 0,10, 0.00,60.00,Wednesday
61,41171576.06409618
1669,41171576.064096175
2049,69846.8066938378
2,4, 1, 4, 0,11, 0.00,60.00,Wednesday
61,37515976.06131648
1669,37515976.061316475
2049,0.0
2,4, 1, 4, 0,12, 0.00,60.00,Wednesday
61,38481445.018773004
1669,38481445.018773
2049,0.0
2,4, 1, 4, 0,13, 0.00,60.00,Wednesday
61,36295535.79052592
1669,36295535.79052591
2049,0.0
2,4, 1, 4, 0,14, 0.00,60.00,Wednesday
61,32653053.35693988
1669,32653053.356939875
2049,0.0
2,4, 1, 4, 0,15, 0.00,60.00,Wednesday
61,30014439.3198757
1669,30014439.3198757
2049,0.0
2,4, 1, 4, 0,16, 0.00,60.00,Wednesday
61,31316762.59157804
1669,31316762.591578037
2049,0.0
2,4, 1, 4, 0,17, 0.00,60.00,Wednesday
61,33867834.91841336
1669,33867834.91841336
2049,0.0
2,4, 1, 4, 0,18, 0.00,60.00,Wednesday
61,33314873.39726237
1669,33314873.397262365
2049,0.0
2,4, 1, 4, 0,19, 0.00,60.00,Wednesday
61,29332559.820615463
1669,29332559.820615463
2049,0.0
2,4, 1, 4, 0,20, 0.00,60.00,Wednesday
61,10883935.25418148
1669,10883935.25418148
2049,0.0
2,4, 1, 4, 0,21, 0.00,60.00,Wednesday
61,9899331.821026983
1669,9899331.82102698
2049,0.0
2,4, 1, 4, 0,22, 0.00,60.00,Wednesday
61,9899331.821026983
1669,9899331.82102698
2049,0.0
2,4, 1, 4, 0,23, 0.00,60.00,Wednesday
61,9013188.731125657
1669,9013188.731125657
2049,0.0
2,4, 1, 4, 0,24, 0.00,60.00,Wednesday
61,7265454.451684226
1669,7265454.451684226
2049,0.0
2,5, 1, 5, 0, 1, 0.00,60.00,Thursday
61,9469604.825749658
1669,9469604.82574966
2049,0.0
2,5, 1, 5, 0, 2, 0.00,60.00,Thursday
61,9469604.825749658
1669,9469604.82574966
2049,0.0
2,5, 1, 5, 0, 3, 0.00,60.00,Thursday
61,9469604.825749658
1669,9469604.82574966
2049,0.0
2,5, 1, 5, 0, 4, 0.00,60.00,Thursday
61,8794604.825749658
1669,8794604.82574966
2049,0.0
2,5, 1, 5, 0, 5, 0.00,60.00,Thursday
61,9019604.825749658
1669,9019604.82574966
2049,0.0
2,5, 1, 5, 0, 6, 0.00,60.00,Thursday
61,9469604.825749658
1669,9469604.82574966
2049,0.0
2,5, 1, 5, 0, 7, 0.00,60.00,Thursday
61,31791459.955684774
1669,31791459.955684777
2049,596786.5194284755
2,5, 1, 5, 0, 8, 0.00,60.00,Thursday
61,34272053.26114982
1669,34272053.26114982
2049,0.0
2,5, 1, 5, 0, 9, 0.00,60.00,Thursday
61,36623505.593906485
1669,36623505.59390648
2049,0.0
2,5, 1, 5, 0,10, 0.00,60.00,Thursday
61,33239540.893863898
1669,33239540.893863894
2049,0.0
2,5, 1, 5, 0,11, 0.00,60.00,Thursday
61,28554104.23579882
1669,28554104.23579882
2049,0.0
2,5, 1, 5, 0,12, 0.00,60.00,Thursday
61,29484259.97304633
1669,29484259.97304633
2049,0.0
2,5, 1, 5, 0,13, 0.00,60.00,Thursday
61,26336727.600643974
1669,26336727.600643978
2049,0.0
2,5, 1, 5, 0,14, 0.00,60.00,Thursday
61,28339879.460674953
1669,28339879.460674953
2049,0.0
2,5, 1, 5, 0,15, 0.00,60.00,Thursday
61,27196707.23259402
1669,27196707.232594017
2049,0.0
2,5, 1, 5, 0,16, 0.00,60.00,Thursday
61,28488822.90355026
1669,28488822.903550256
2049,0.0
2,5, 1, 5, 0,17, 0.00,60.00,Thursday
61,30441686.331472874
1669,30441686.331472874
2049,0.0
2,5, 1, 5, 0,18, 0.00,60.00,Thursday
61,26036670.798200905
1669,26036670.798200905
2049,0.0
2,5, 1, 5, 0,19, 0.00,60.00,Thursday
61,23242700.6783218
1669,23242700.6783218
2049,0.0
2,5, 1, 5, 0,20, 0.00,60.00,Thursday
61,10883935.25418148
1669,10883935.25418148
2049,0.0
2,5, 1, 5, 0,21, 0.00,60.00,Thursday
61,9899331.821026983
1669,9899331.82102698
2049,0.0
2,5, 1, 5, 0,22, 0.00,60.00,Thursday
61,9899331.821026983
1669,9899331.82102698
2049,0.0
2,5, 1, 5, 0,23, 0.00,60.00,Thursday
61,9013188.731125657
1669,9013188.731125657
2049,0.0
2,5, 1, 5, 0,24, 0.00,60.00,Thursday
61,7265454.451684226
1669,7265454.451684226
2049,0.0
2,6, 1, 6, 0, 1, 0.00,60.00,Friday
61,9469604.825749658
1669,9469604.82574966
2049,0.0
2,6, 1, 6, 0, 2, 0.00,60.00,Friday
61,9469604.825749658
1669,9469604.82574966
2049,0.0
2,6, 1, 6, 0, 3, 0.00,60.00,Friday
61,8794604.825749658
1669,8794604.82574966
2049,0.0
2,6, 1, 6, 0, 4, 0.00,60.00,Friday
61,8794604.825749658
1669,8794604.82574966
2049,0.0
2,6, 1, 6, 0, 5, 0.00,60.00,Friday
61,9469604.825749658
1669,9469604.82574966
2049,0.0
2,6, 1, 6, 0, 6, 0.00,60.00,Friday
61,9469604.825749658
1669,9469604.82574966
2049,0.0
2,6, 1, 6, 0, 7, 0.00,60.00,Friday
61,27775830.051704958
1669,27775830.051704958
2049,0.0
2,6, 1, 6, 0, 8, 0.00,60.00,Friday
61,31566470.31171366
1669,31566470.31171366
2049,0.0
2,6, 1, 6, 0, 9, 0.00,60.00,Friday
61,31717001.506272636
1669,31717001.506272633
2049,0.0
2,6, 1, 6, 0,10, 0.00,60.00,Friday
61,28900137.979164056
1669,28900137.979164056
2049,0.0
2,6, 1, 6, 0,11, 0.00,60.00,Friday
61,27330782.326741602
1669,27330782.326741606
2049,0.0
2,6, 1, 6, 0,12, 0.00,60.00,Friday
61,28406022.7065135
1669,28406022.7065135
2049,0.0
2,6, 1, 6, 0,13, 0.00,60.00,Friday
61,25404859.379056014
1669,25404859.379056014
2049,0.0
2,6, 1, 6, 0,14, 0.00,60.00,Friday
61,28734490.22097253
1669,28734490.22097253
2049,0.0
2,6, 1, 6, 0,15, 0.00,60.00,Friday
61,27680405.258246124
1669,27680405.258246124
2049,0.0
2,6, 1, 6, 0,16, 0.00,60.00,Friday
61,28848050.824997645
1669,28848050.82499764
2049,0.0
2,6, 1, 6, 0,17, 0.00,60.00,Friday
61,29850597.841231335
1669,29850597.84123133
2049,0.0
2,6, 1, 6, 0,18, 0.00,60.00,Friday
61,25359811.275246106
1669,25359811.2752461
2049,0.0
2,6, 1, 6, 0,19, 0.00,60.00,Friday
61,23772951.431999777
1669,23772951.43199978
2049,0.0
2,6, 1, 6, 0,20, 0.00,60.00,Friday
61,10883935.25418148
1669,10883935.25418148
2049,0.0
2,6, 1, 6, 0,21, 0.00,60.00,Friday
61,9899331.821026983
1669,9899331.82102698
2049,0.0
2,6, 1, 6, 0,22, 0.00,60.00,Friday
61,9899331.821026983
1669,9899331.82102698
2049,0.0
2,6, 1, 6, 0,23, 0.00,60.00,Friday
61,9013188.731125657
1669,9013188.731125657
2049,0.0
2,6, 1, 6, 0,24, 0.00,60.00,Friday
61,7265454.451684226
1669,7265454.451684226
2049,0.0
2,7, 1, 7, 0, 1, 0.00,60.00,Saturday
61,6404338.596677196
1669,6404338.596677196
2049,0.0
2,7, 1, 7, 0, 2, 0.00,60.00,Saturday
61,6404338.596677196
1669,6404338.596677196
2049,0.0
2,7, 1, 7, 0, 3, 0.00,60.00,Saturday
61,6404338.596677196
1669,6404338.596677196
2049,0.0
2,7, 1, 7, 0, 4, 0.00,60.00,Saturday
61,6404338.596677196
1669,6404338.596677196
2049,0.0
2,7, 1, 7, 0, 5, 0.00,60.00,Saturday
61,6404338.596677196
1669,6404338.596677196
2049,0.0
2,7, 1, 7, 0, 6, 0.00,60.00,Saturday
61,6404338.596677196
1669,6404338.596677196
2049,0.0
2,7, 1, 7, 0, 7, 0.00,60.00,Saturday
61,7595938.596677196
1669,7595938.596677196
2049,0.0
2,7, 1, 7, 0, 8, 0.00,60.00,Saturday
61,5945428.596677196
1669,5945428.596677196
2049,0.0
2,7, 1, 7, 0, 9, 0.00,60.00,Saturday
61,5395258.596677196
1669,5395258.596677196
2049,0.0
2,7, 1, 7, 0,10, 0.00,60.00,Saturday
61,4720258.596677196
1669,4720258.596677196
2049,0.0
2,7, 1, 7, 0,11, 0.00,60.00,Saturday
61,4495258.596677196
1669,4495258.596677196
2049,0.0
2,7, 1, 7, 0,12, 0.00,60.00,Saturday
61,4495258.596677196
1669,4495258.596677196
2049,0.0
2,7, 1, 7, 0,13, 0.00,60.00,Saturday
61,4495258.596677196
1669,4495258.596677196
2049,0.0
2,7, 1, 7, 0,14, 0.00,60.00,Saturday
61,4495258.596677196
1669,4495258.596677196
2049,0.0
2,7, 1, 7, 0,15, 0.00,60.00,Saturday
61,4495258.596677196
1669,4495258.596677196
2049,0.0
2,7, 1, 7, 0,16, 0.00,60.00,Saturday
61,4495258.596677196
1669,4495258.596677196
2049,0.0
2,7, 1, 7, 0,17, 0.00,60.00,Saturday
61,5270428.596677196
1669,5270428.596677196
2049,0.0
2,7, 1, 7, 0,18, 0.00,60.00,Saturday
61,7595938.596677196
1669,7595938.596677196
2049,0.0
2,7, 1, 7, 0,19, 0.00,60.00,Saturday
61,7595938.596677196
1669,7595938.596677196
2049,0.0
2,7, 1, 7, 0,20, 0.00,60.00,Saturday
61,6794038.596677196
1669,6794038.596677196
2049,0.0
2,7, 1, 7, 0,21, 0.00,60.00,Saturday
61,6794038.596677196
1669,6794038.596677196
2049,0.0
2,7, 1, 7, 0,22, 0.00,60.00,Saturday
61,6794038.596677196
1669,6794038.596677196
2049,0.0
2,7, 1, 7, 0,23, 0.00,60.00,Saturday
61,6794038.596677196
1669,6794038.596677196
2049,0.0
2,7, 1, 7, 0,24, 0.00,60.00,Saturday
61,6794038.596677196
1669,6794038.596677196
2049,0.0
2,8, 1, 8, 0, 1, 0.00,60.00,Sunday
61,6404338.596677196
1669,6404338.596677196
2049,0.0
2,8, 1, 8, 0, 2, 0.00,60.00,Sunday
61,6404338.596677196
1669,6404338.596677196
2049,0.0
2,8, 1, 8, 0, 3, 0.00,60.00,Sunday
61,6404338.596677196
1669,6404338.596677196
2049,0.0
2,8, 1, 8, 0, 4, 0.00,60.00,Sunday
61,6404338.596677196
1669,6404338.596677196
2049,0.0
2,8, 1, 8, 0, 5, 0.00,60.00,Sunday
61,6404338.596677196
1669,6404338.596677196
2049,0.0
2,8, 1, 8, 0, 6, 0.00,60.00,Sunday
61,6404338.596677196
1669,6404338.596677196
2049,0.0
2,8, 1, 8, 0, 7, 0.00,60.00,Sunday
61,7595938.596677196
1669,7595938.596677196
2049,0.0
2,8, 1, 8, 0, 8, 0.00,60.00,Sunday
61,5945428.596677196
1669,5945428.596677196
2049,0.0
2,8, 1, 8, 0, 9, 0.00,60.00,Sunday
61,5395258.596677196
1669,5395258.596677196
2049,0.0
2,8, 1, 8, 0,10, 0.00,60.00,Sunday
61,5395258.596677196
1669,5395258.596677196
2049,0.0
2,8, 1, 8, 0,11, 0.00,60.00,Sunday
61,5395258.596677196
1669,5395258.596677196
2049,0.0
2,8, 1, 8, 0,12, 0.00,60.00,Sunday
61,5395258.596677196
1669,5395258.596677196
2049,0.0
2,8, 1, 8, 0,13, 0.00,60.00,Sunday
61,5395258.596677196
1669,5395258.596677196
2049,0.0
2,8, 1, 8, 0,14, 0.00,60.00,Sunday
61,5395258.596677196
1669,5395258.596677196
2049,0.0
2,8, 1, 8, 0,15, 0.00,60.00,Sunday
61,5395258.596677196
1669,5395258.596677196
2049,0.0
2,8, 1, 8, 0,16, 0.00,60.00,Sunday
61,5395258.596677196
1669,5395258.596677196
2049,0.0
2,8, 1, 8, 0,17, 0.00,60.00,Sunday
61,5945428.596677196
1669,5945428.596677196
2049,0.0
2,8, 1, 8, 0,18, 0.00,60.00,Sunday
61,7595938.596677196
1669,7595938.596677196
2049,0.0
2,8, 1, 8, 0,19, 0.00,60.00,Sunday
61,7595938.596677196
1669,7595938.596677196
2049,0.0
2,8, 1, 8, 0,20, 0.00,60.00,Sunday
61,6794038.596677196
1669,6794038.596677196
2049,0.0
2,8, 1, 8, 0,21, 0.00,60.00,Sunday
61,6794038.596677196
1669,6794038.596677196
2049,0.0
2,8, 1, 8, 0,22, 0.00,60.00,Sunday
61,6794038.596677196
1669,6794038.596677196
2049,0.0
2,8, 1, 8, 0,23, 0.00,60.00,Sunday
61,6794038.596677196
1669,6794038.596677196
2049,0.0
2,8, 1, 8, 0,24, 0.00,60.00,Sunday
61,6794038.596677196
1669,6794038.596677196
2049,0.0
2,9, 1, 9, 0, 1, 0.00,60.00,Monday
61,9469604.825749658
1669,9469604.82574966
2049,0.0
2,9, 1, 9, 0, 2, 0.00,60.00,Monday
61,9469604.825749658
1669,9469604.82574966
2049,0.0
2,9, 1, 9, 0, 3, 0.00,60.00,Monday
61,9469604.825749658
1669,9469604.82574966
2049,0.0
2,9, 1, 9, 0, 4, 0.00,60.00,Monday
61,9469604.825749658
1669,9469604.82574966
2049,0.0
2,9, 1, 9, 0, 5, 0.00,60.00,Monday
61,9469604.825749658
1669,9469604.82574966
2049,0.0
2,9, 1, 9, 0, 6, 0.00,60.00,Monday
61,9469604.825749658
1669,9469604.82574966
2049,0.0
2,9, 1, 9, 0, 7, 0.00,60.00,Monday
61,34835551.834773645
1669,34835551.834773645
2049,14900521.231417352
2,9, 1, 9, 0, 8, 0.00,60.00,Monday
61,37838602.243032835
1669,37838602.24303283
2049,17112952.330019154
2,9, 1, 9, 0, 9, 0.00,60.00,Monday
61,37160695.12881861
1669,37160695.1288186
2049,764405.9855583732
2,9, 1, 9, 0,10, 0.00,60.00,Monday
61,33350994.317457724
1669,33350994.317457713
2049,0.0
2,9, 1, 9, 0,11, 0.00,60.00,Monday
61,30102284.974211305
1669,30102284.9742113
2049,0.0
2,9, 1, 9, 0,12, 0.00,60.00,Monday
61,30614358.18087413
1669,30614358.180874135
2049,0.0
2,9, 1, 9, 0,13, 0.00,60.00,Monday
61,27628785.65810182
1669,27628785.65810182
2049,0.0
2,9, 1, 9, 0,14, 0.00,60.00,Monday
61,29885327.117158115
1669,29885327.11715811
2049,0.0
2,9, 1, 9, 0,15, 0.00,60.00,Monday
61,28633098.667088017
1669,28633098.667088017
2049,0.0
2,9, 1, 9, 0,16, 0.00,60.00,Monday
61,29615406.07766483
1669,29615406.07766483
2049,0.0
2,9, 1, 9, 0,17, 0.00,60.00,Monday
61,31168708.007048383
1669,31168708.007048383
2049,0.0
2,9, 1, 9, 0,18, 0.00,60.00,Monday
61,27179332.740034707
1669,27179332.740034703
2049,0.0
2,9, 1, 9, 0,19, 0.00,60.00,Monday
61,23981908.167153463
1669,23981908.167153463
2049,0.0
2,9, 1, 9, 0,20, 0.00,60.00,Monday
61,10883935.25418148
1669,10883935.25418148
2049,0.0
2,9, 1, 9, 0,21, 0.00,60.00,Monday
61,9899331.821026983
1669,9899331.82102698
2049,0.0
2,9, 1, 9, 0,22, 0.00,60.00,Monday
61,9899331.821026983
1669,9899331.82102698
2049,0.0
2,9, 1, 9, 0,23, 0.00,60.00,Monday
61,9013188.731125657
1669,9013188.731125657
2049,0.0
2,9, 1, 9, 0,24, 0.00,60.00,Monday
61,7265454.451684226
1669,7265454.451684226
2049,0.0
2,10, 1,10, 0, 1, 0.00,60.00,Tuesday
61,9469604.825749658
1669,9469604.82574966
2049,0.0
2,10, 1,10, 0, 2, 0.00,60.00,Tuesday
61,9244604.825749658
1669,9244604.82574966
2049,0.0
2,10, 1,10, 0, 3, 0.00,60.00,Tuesday
61,8569604.825749658
1669,8569604.82574966
2049,0.0
2,10, 1,10, 0, 4, 0.00,60.00,Tuesday
61,9469604.825749658
1669,9469604.82574966
2049,0.0
2,10, 1,10, 0, 5, 0.00,60.00,Tuesday
61,9019604.825749658
1669,9019604.82574966
2049,0.0
2,10, 1,10, 0, 6, 0.00,60.00,Tuesday
61,8569604.825749658
1669,8569604.82574966
2049,0.0
2,10, 1,10, 0, 7, 0.00,60.00,Tuesday
61,26256914.381047465
1669,26256914.38104747
2049,0.0
2,10, 1,10, 0, 8, 0.00,60.00,Tuesday
61,27488438.451420218
1669,27488438.451420218
2049,0.0
2,10, 1,10, 0, 9, 0.00,60.00,Tuesday
61,30012702.780397326
1669,30012702.780397326
2049,0.0
2,10, 1,10, 0,10, 0.00,60.00,Tuesday
61,28843949.93704232
1669,28843949.93704232
2049,0.0
2,10, 1,10, 0,11, 0.00,60.00,Tuesday
61,27796147.33642
1669,27796147.33642
2049,0.0
2,10, 1,10, 0,12, 0.00,60.00,Tuesday
61,28982270.267646376
1669,28982270.267646372
2049,0.0
2,10, 1,10, 0,13, 0.00,60.00,Tuesday
61,25819745.37681368
1669,25819745.37681368
2049,0.0
2,10, 1,10, 0,14, 0.00,60.00,Tuesday
61,29237243.843952708
1669,29237243.843952708
2049,0.0
2,10, 1,10, 0,15, 0.00,60.00,Tuesday
61,28915058.258841395
1669,28915058.258841395
2049,0.0
2,10, 1,10, 0,16, 0.00,60.00,Tuesday
61,30094970.64090984
1669,30094970.640909836
2049,0.0
2,10, 1,10, 0,17, 0.00,60.00,Tuesday
61,31024578.593566887
1669,31024578.593566883
2049,0.0
2,10, 1,10, 0,18, 0.00,60.00,Tuesday
61,25535170.39097908
1669,25535170.39097908
2049,0.0
2,10, 1,10, 0,19, 0.00,60.00,Tuesday
61,22047316.847543586
1669,22047316.84754359
2049,0.0
2,10, 1,10, 0,20, 0.00,60.00,Tuesday
61,10883935.25418148
1669,10883935.25418148
2049,0.0
2,10, 1,10, 0,21, 0.00,60.00,Tuesday
61,9899331.821026983
1669,9899331.82102698
2049,0.0
2,10, 1,10, 0,22, 0.00,60.00,Tuesday
61,9899331.821026983
1669,9899331.82102698
2049,0.0
2,10, 1,10, 0,23, 0.00,60.00,Tuesday
61,9013188.731125657
1669,9013188.731125657
2049,0.0
2,10, 1,10, 0,24, 0.00,60.00,Tuesday
61,6365454.451684226
1669,6365454.451684226
2049,0.0
2,11, 1,11, 0, 1, 0.00,60.00,Wednesday
61,8794604.825749658
1669,8794604.82574966
2049,0.0
2,11, 1,11, 0, 2, 0.00,60.00,Wednesday
61,9469604.825749658
1669,9469604.82574966
2049,0.0
2,11, 1,11, 0, 3, 0.00,60.00,Wednesday
61,9019604.825749658
1669,9019604.82574966
2049,0.0
2,11, 1,11, 0, 4, 0.00,60.00,Wednesday
61,9019604.825749658
1669,9019604.82574966
2049,0.0
2,11, 1,11, 0, 5, 0.00,60.00,Wednesday
61,9469604.825749658
1669,9469604.82574966
2049,0.0
2,11, 1,11, 0, 6, 0.00,60.00,Wednesday
61,9469604.825749658
1669,9469604.82574966
2049,0.0
2,11, 1,11, 0, 7, 0.00,60.00,Wednesday
61,23418120.88136355
1669,23418120.88136355
2049,0.0
2,11, 1,11, 0, 8, 0.00,60.00,Wednesday
61,25757724.479077205
1669,25757724.47907721
2049,0.0
2,11, 1,11, 0, 9, 0.00,60.00,Wednesday
61,29366299.62420214
1669,29366299.62420214
2049,0.0
2,11, 1,11, 0,10, 0.00,60.00,Wednesday
61,28076482.7108934
1669,28076482.710893396
2049,0.0
2,11, 1,11, 0,11, 0.00,60.00,Wednesday
61,26650706.65937277
1669,26650706.65937277
2049,0.0
2,11, 1,11, 0,12, 0.00,60.00,Wednesday
61,27844686.45420745
1669,27844686.45420745
2049,0.0
2,11, 1,11, 0,13, 0.00,60.00,Wednesday
61,24977187.673636287
1669,24977187.673636287
2049,0.0
2,11, 1,11, 0,14, 0.00,60.00,Wednesday
61,27985008.571395703
1669,27985008.571395703
2049,0.0
2,11, 1,11, 0,15, 0.00,60.00,Wednesday
61,27379712.89319144
1669,27379712.893191434
2049,0.0
2,11, 1,11, 0,16, 0.00,60.00,Wednesday
61,28702388.96813245
1669,28702388.96813245
2049,0.0
2,11, 1,11, 0,17, 0.00,60.00,Wednesday
61,29693619.581920773
1669,29693619.58192077
2049,0.0
2,11, 1,11, 0,18, 0.00,60.00,Wednesday
61,22632439.002119195
1669,22632439.00211919
2049,0.0
2,11, 1,11, 0,19, 0.00,60.00,Wednesday
61,17962295.35275802
1669,17962295.35275802
2049,0.0
2,11, 1,11, 0,20, 0.00,60.00,Wednesday
61,9983935.25418148
1669,9983935.25418148
2049,0.0
2,11, 1,11, 0,21, 0.00,60.00,Wednesday
61,8999331.821026983
1669,8999331.82102698
2049,0.0
2,11, 1,11, 0,22, 0.00,60.00,Wednesday
61,8999331.821026983
1669,8999331.82102698
2049,0.0
2,11, 1,11, 0,23, 0.00,60.00,Wednesday
61,8113188.731125657
1669,8113188.731125657
2049,0.0
2,11, 1,11, 0,24, 0.00,60.00,Wednesday
61,6365454.451684226
1669,6365454.451684226
2049,0.0
2,12, 1,12, 0, 1, 0.00,60.00,Thursday
61,9019604.825749658
1669,9019604.82574966
2049,0.0
2,12, 1,12, 0, 2, 0.00,60.00,Thursday
61,9469604.825749658
1669,9469604.82574966
2049,0.0
2,12, 1,12, 0, 3, 0.00,60.00,Thursday
61,9469604.825749658
1669,9469604.82574966
2049,0.0
2,12, 1,12, 0, 4, 0.00,60.00,Thursday
61,9469604.825749658
1669,9469604.82574966
2049,0.0
2,12, 1,12, 0, 5, 0.00,60.00,Thursday
61,9469604.825749658
1669,9469604.82574966
2049,0.0
2,12, 1,12, 0, 6, 0.00,60.00,Thursday
61,9469604.825749658
1669,9469604.82574966
2049,0.0
2,12, 1,12, 0, 7, 0.00,60.00,Thursday
61,22797869.051871546
1669,22797869.051871546
2049,0.0
2,12, 1,12, 0, 8, 0.00,60.00,Thursday
61,28025863.314289376
1669,28025863.31428937
2049,0.0
2,12, 1,12, 0, 9, 0.00,60.00,Thursday
61,30034170.703926027
1669,30034170.703926027
2049,0.0
2,12, 1,12, 0,10, 0.00,60.00,Thursday
61,28858950.083585158
1669,28858950.083585154
2049,0.0
2,12, 1,12, 0,11, 0.00,60.00,Thursday
61,27412126.52780749
1669,27412126.52780749
2049,0.0
2,12, 1,12, 0,12, 0.00,60.00,Thursday
61,28077583.945836294
1669,28077583.945836294
2049,0.0
2,12, 1,12, 0,13, 0.00,60.00,Thursday
61,25539329.25289082
1669,25539329.252890818
2049,0.0
2,12, 1,12, 0,14, 0.00,60.00,Thursday
61,27628201.310560122
1669,27628201.31056012
2049,0.0
2,12, 1,12, 0,15, 0.00,60.00,Thursday
61,26718402.66790989
1669,26718402.66790989
2049,0.0
2,12, 1,12, 0,16, 0.00,60.00,Thursday
61,28154570.14397046
1669,28154570.14397046
2049,0.0
2,12, 1,12, 0,17, 0.00,60.00,Thursday
61,30189245.40062745
1669,30189245.40062745
2049,0.0
2,12, 1,12, 0,18, 0.00,60.00,Thursday
61,26880433.30879554
1669,26880433.308795534
2049,0.0
2,12, 1,12, 0,19, 0.00,60.00,Thursday
61,23655636.395147152
1669,23655636.39514715
2049,0.0
2,12, 1,12, 0,20, 0.00,60.00,Thursday
61,10883935.25418148
1669,10883935.25418148
2049,0.0
2,12, 1,12, 0,21, 0.00,60.00,Thursday
61,9899331.821026983
1669,9899331.82102698
2049,0.0
2,12, 1,12, 0,22, 0.00,60.00,Thursday
61,9899331.821026983
1669,9899331.82102698
2049,0.0
2,12, 1,12, 0,23, 0.00,60.00,Thursday
61,9013188.731125657
1669,9013188.731125657
2049,0.0
2,12, 1,12, 0,24, 0.00,60.00,Thursday
61,7265454.451684226
1669,7265454.451684226
2049,0.0
2,13, 1,13, 0, 1, 0.00,60.00,Friday
61,9469604.825749658
1669,9469604.82574966
2049,0.0
2,13, 1,13, 0, 2, 0.00,60.00,Friday
61,9469604.825749658
1669,9469604.82574966
2049,0.0
2,13, 1,13, 0, 3, 0.00,60.00,Friday
61,9469604.825749658
1669,9469604.82574966
2049,0.0
2,13, 1,13, 0, 4, 0.00,60.00,Friday
61,9469604.825749658
1669,9469604.82574966
2049,0.0
2,13, 1,13, 0, 5, 0.00,60.00,Friday
61,9469604.825749658
1669,9469604.82574966
2049,0.0
2,13, 1,13, 0, 6, 0.00,60.00,Friday
61,9469604.825749658
1669,9469604.82574966
2049,0.0
2,13, 1,13, 0, 7, 0.00,60.00,Friday
61,27904990.212099455
1669,27904990.212099455
2049,5762.053257647292
2,13, 1,13, 0, 8, 0.00,60.00,Friday
61,32635401.089150026
1669,32635401.089150026
2049,639094.0715303274
2,13, 1,13, 0, 9, 0.00,60.00,Friday
61,31972671.79156219
1669,31972671.79156219
2049,0.0
2,13, 1,13, 0,10, 0.00,60.00,Friday
61,32032753.79457213
1669,32032753.794572126
2049,0.0
2,13, 1,13, 0,11, 0.00,60.00,Friday
61,29679760.32531912
1669,29679760.325319115
2049,0.0
2,13, 1,13, 0,12, 0.00,60.00,Friday
61,29411328.673803244
1669,29411328.67380324
2049,0.0
2,13, 1,13, 0,13, 0.00,60.00,Friday
61,28333168.486654177
1669,28333168.48665418
2049,0.0
2,13, 1,13, 0,14, 0.00,60.00,Friday
61,29393645.190293204
1669,29393645.190293204
2049,0.0
2,13, 1,13, 0,15, 0.00,60.00,Friday
61,28163406.664504766
1669,28163406.66450477
2049,0.0
2,13, 1,13, 0,16, 0.00,60.00,Friday
61,29212973.76195989
1669,29212973.76195989
2049,0.0
2,13, 1,13, 0,17, 0.00,60.00,Friday
61,30614162.58790456
1669,30614162.587904558
2049,0.0
2,13, 1,13, 0,18, 0.00,60.00,Friday
61,29703981.037078492
1669,29703981.037078492
2049,0.0
2,13, 1,13, 0,19, 0.00,60.00,Friday
61,25963128.29024747
1669,25963128.29024747
2049,0.0
2,13, 1,13, 0,20, 0.00,60.00,Friday
61,10883935.25418148
1669,10883935.25418148
2049,0.0
2,13, 1,13, 0,21, 0.00,60.00,Friday
61,9899331.821026983
1669,9899331.82102698
2049,0.0
2,13, 1,13, 0,22, 0.00,60.00,Friday
61,9899331.821026983
1669,9899331.82102698
2049,0.0
2,13, 1,13, 0,23, 0.00,60.00,Friday
61,9013188.731125657
1669,9013188.731125657
2049,0.0
2,13, 1,13, 0,24, 0.00,60.00,Friday
61,7265454.451684226
1669,7265454.451684226
2049,0.0
2,14, 1,14, 0, 1, 0.00,60.00,Saturday
61,6404338.596677196
1669,6404338.596677196
2049,0.0
2,14, 1,14, 0, 2, 0.00,60.00,Saturday
61,6404338.596677196
1669,6404338.596677196
2049,0.0
2,14, 1,14, 0, 3, 0.00,60.00,Saturday
61,6404338.596677196
1669,6404338.596677196
2049,0.0
2,14, 1,14, 0, 4, 0.00,60.00,Saturday
61,6404338.596677196
1669,6404338.596677196
2049,0.0
2,14, 1,14, 0, 5, 0.00,60.00,Saturday
61,6404338.596677196
1669,6404338.596677196
2049,0.0
2,14, 1,14, 0, 6, 0.00,60.00,Saturday
61,6404338.596677196
1669,6404338.596677196
2049,0.0
2,14, 1,14, 0, 7, 0.00,60.00,Saturday
61,7595938.596677196